ITEM: TIMESTEP
0
ITEM: NUMBER OF ATOMS
128     
ITEM: BOX BOUNDS xy xz yz
0.000000000      15.024000000     5.008000000     
0.000000000      8.674110444      0.000000000     
0.000000000      13.322000000     0.000000000     
ITEM: ATOMS id mol type xu yu zu
1 1 1 0.000000 0.000000 0.000000
2 1 2 1.252000 0.722843 0.000000
3 1 2 0.000000 0.000000 3.330500
4 1 1 1.252000 0.722843 3.330500
5 1 1 2.504000 0.000000 0.000000
6 1 2 3.756000 0.722843 0.000000
7 1 2 2.504000 0.000000 3.330500
8 1 1 3.756000 0.722843 3.330500
9 1 1 5.008000 0.000000 0.000000
10 1 2 6.260000 0.722843 0.000000
11 1 2 5.008000 0.000000 3.330500
12 1 1 6.260000 0.722843 3.330500
13 1 1 7.512000 0.000000 0.000000
14 1 2 8.764000 0.722843 0.000000
15 1 2 7.512000 0.000000 3.330500
16 1 1 8.764000 0.722843 3.330500
17 1 1 1.252000 2.168528 0.000000
18 1 2 2.504000 2.891370 0.000000
19 1 2 1.252000 2.168528 3.330500
20 1 1 2.504000 2.891370 3.330500
21 1 1 3.756000 2.168528 0.000000
22 1 2 5.008000 2.891370 0.000000
23 1 2 3.756000 2.168528 3.330500
24 1 1 5.008000 2.891370 3.330500
25 1 1 6.260000 2.168528 0.000000
26 1 2 7.512000 2.891370 0.000000
27 1 2 6.260000 2.168528 3.330500
28 1 1 7.512000 2.891370 3.330500
29 1 1 8.764000 2.168528 0.000000
30 1 2 10.016000 2.891370 0.000000
31 1 2 8.764000 2.168528 3.330500
32 1 1 10.016000 2.891370 3.330500
33 1 1 2.504000 4.337055 0.000000
34 1 2 3.756000 5.059898 0.000000
35 1 2 2.504000 4.337055 3.330500
36 1 1 3.756000 5.059898 3.330500
37 1 1 5.008000 4.337055 0.000000
38 1 2 6.260000 5.059898 0.000000
39 1 2 5.008000 4.337055 3.330500
40 1 1 6.260000 5.059898 3.330500
41 1 1 7.512000 4.337055 0.000000
42 1 2 8.764000 5.059898 0.000000
43 1 2 7.512000 4.337055 3.330500
44 1 1 8.764000 5.059898 3.330500
45 1 1 10.016000 4.337055 0.000000
46 1 2 11.268000 5.059898 0.000000
47 1 2 10.016000 4.337055 3.330500
48 1 1 11.268000 5.059898 3.330500
49 1 1 3.756000 6.505583 0.000000
50 1 2 5.008000 7.228425 0.000000
51 1 2 3.756000 6.505583 3.330500
52 1 1 5.008000 7.228425 3.330500
53 1 1 6.260000 6.505583 0.000000
54 1 2 7.512000 7.228425 0.000000
55 1 2 6.260000 6.505583 3.330500
56 1 1 7.512000 7.228425 3.330500
57 1 1 8.764000 6.505583 0.000000
58 1 2 10.016000 7.228425 0.000000
59 1 2 8.764000 6.505583 3.330500
60 1 1 10.016000 7.228425 3.330500
61 1 1 11.268000 6.505583 0.000000
62 1 2 12.520000 7.228425 0.000000
63 1 2 11.268000 6.505583 3.330500
64 1 1 12.520000 7.228425 3.330500
65 1 1 0.000000 0.000000 6.661000
66 1 2 1.252000 0.722843 6.661000
67 1 2 0.000000 0.000000 9.991500
68 1 1 1.252000 0.722843 9.991500
69 1 1 2.504000 0.000000 6.661000
70 1 2 3.756000 0.722843 6.661000
71 1 2 2.504000 0.000000 9.991500
72 1 1 3.756000 0.722843 9.991500
73 1 1 5.008000 0.000000 6.661000
74 1 2 6.260000 0.722843 6.661000
75 1 2 5.008000 0.000000 9.991500
76 1 1 6.260000 0.722843 9.991500
77 1 1 7.512000 0.000000 6.661000
78 1 2 8.764000 0.722843 6.661000
79 1 2 7.512000 0.000000 9.991500
80 1 1 8.764000 0.722843 9.991500
81 1 1 1.252000 2.168528 6.661000
82 1 2 2.504000 2.891370 6.661000
83 1 2 1.252000 2.168528 9.991500
84 1 1 2.504000 2.891370 9.991500
85 1 1 3.756000 2.168528 6.661000
86 1 2 5.008000 2.891370 6.661000
87 1 2 3.756000 2.168528 9.991500
88 1 1 5.008000 2.891370 9.991500
89 1 1 6.260000 2.168528 6.661000
90 1 2 7.512000 2.891370 6.661000
91 1 2 6.260000 2.168528 9.991500
92 1 1 7.512000 2.891370 9.991500
93 1 1 8.764000 2.168528 6.661000
94 1 2 10.016000 2.891370 6.661000
95 1 2 8.764000 2.168528 9.991500
96 1 1 10.016000 2.891370 9.991500
97 1 1 2.504000 4.337055 6.661000
98 1 2 3.756000 5.059898 6.661000
99 1 2 2.504000 4.337055 9.991500
100 1 1 3.756000 5.059898 9.991500
101 1 1 5.008000 4.337055 6.661000
102 1 2 6.260000 5.059898 6.661000
103 1 2 5.008000 4.337055 9.991500
104 1 1 6.260000 5.059898 9.991500
105 1 1 7.512000 4.337055 6.661000
106 1 2 8.764000 5.059898 6.661000
107 1 2 7.512000 4.337055 9.991500
108 1 1 8.764000 5.059898 9.991500
109 1 1 10.016000 4.337055 6.661000
110 1 2 11.268000 5.059898 6.661000
111 1 2 10.016000 4.337055 9.991500
112 1 1 11.268000 5.059898 9.991500
113 1 1 3.756000 6.505583 6.661000
114 1 2 5.008000 7.228425 6.661000
115 1 2 3.756000 6.505583 9.991500
116 1 1 5.008000 7.228425 9.991500
117 1 1 6.260000 6.505583 6.661000
118 1 2 7.512000 7.228425 6.661000
119 1 2 6.260000 6.505583 9.991500
120 1 1 7.512000 7.228425 9.991500
121 1 1 8.764000 6.505583 6.661000
122 1 2 10.016000 7.228425 6.661000
123 1 2 8.764000 6.505583 9.991500
124 1 1 10.016000 7.228425 9.991500
125 1 1 11.268000 6.505583 6.661000
126 1 2 12.520000 7.228425 6.661000
127 1 2 11.268000 6.505583 9.991500
128 1 1 12.520000 7.228425 9.991500
