LAMMPS data file via write_data, version 2 Aug 2023, timestep = 4, units = metal

3 atoms
3 atom types

0.0 1.0 xlo xhi
0.0 1.0 ylo yhi
0.0 1.0 zlo zhi
0 0 0 xy xz yz

Masses

1 1
2 1
3 1

Atoms # atomic

1 1 1.11 1.12 1.13 0 0 0
2 2 1.21 1.22 1.23 0 0 0
3 3 1.31 1.32 1.33 0 0 0
