ITEM: TIMESTEP
0
ITEM: NUMBER OF ATOMS
480     
ITEM: BOX BOUNDS pp pp pp
0.000000000      73.785364410    
0.000000000      17.040000000    
0.000000000      20.000000000    
ITEM: ATOMS id mol type xu yu zu
1 1 1 1.229756 0.000000 0.000000
2 1 1 0.000000 0.710000 0.000000
3 1 1 0.000000 2.130000 0.000000
4 1 1 1.229756 2.840000 0.000000
5 1 1 3.689268 0.000000 0.000000
6 1 1 2.459512 0.710000 0.000000
7 1 1 2.459512 2.130000 0.000000
8 1 1 3.689268 2.840000 0.000000
9 1 1 6.148780 0.000000 0.000000
10 1 1 4.919024 0.710000 0.000000
11 1 1 4.919024 2.130000 0.000000
12 1 1 6.148780 2.840000 0.000000
13 1 1 8.608293 0.000000 0.000000
14 1 1 7.378536 0.710000 0.000000
15 1 1 7.378536 2.130000 0.000000
16 1 1 8.608293 2.840000 0.000000
17 1 1 11.067805 0.000000 0.000000
18 1 1 9.838049 0.710000 0.000000
19 1 1 9.838049 2.130000 0.000000
20 1 1 11.067805 2.840000 0.000000
21 1 1 13.527317 0.000000 0.000000
22 1 1 12.297561 0.710000 0.000000
23 1 1 12.297561 2.130000 0.000000
24 1 1 13.527317 2.840000 0.000000
25 1 1 15.986829 0.000000 0.000000
26 1 1 14.757073 0.710000 0.000000
27 1 1 14.757073 2.130000 0.000000
28 1 1 15.986829 2.840000 0.000000
29 1 1 18.446341 0.000000 0.000000
30 1 1 17.216585 0.710000 0.000000
31 1 1 17.216585 2.130000 0.000000
32 1 1 18.446341 2.840000 0.000000
33 1 1 20.905853 0.000000 0.000000
34 1 1 19.676097 0.710000 0.000000
35 1 1 19.676097 2.130000 0.000000
36 1 1 20.905853 2.840000 0.000000
37 1 1 23.365365 0.000000 0.000000
38 1 1 22.135609 0.710000 0.000000
39 1 1 22.135609 2.130000 0.000000
40 1 1 23.365365 2.840000 0.000000
41 1 1 25.824878 0.000000 0.000000
42 1 1 24.595121 0.710000 0.000000
43 1 1 24.595121 2.130000 0.000000
44 1 1 25.824878 2.840000 0.000000
45 1 1 28.284390 0.000000 0.000000
46 1 1 27.054634 0.710000 0.000000
47 1 1 27.054634 2.130000 0.000000
48 1 1 28.284390 2.840000 0.000000
49 1 1 30.743902 0.000000 0.000000
50 1 1 29.514146 0.710000 0.000000
51 1 1 29.514146 2.130000 0.000000
52 1 1 30.743902 2.840000 0.000000
53 1 1 33.203414 0.000000 0.000000
54 1 1 31.973658 0.710000 0.000000
55 1 1 31.973658 2.130000 0.000000
56 1 1 33.203414 2.840000 0.000000
57 1 1 35.662926 0.000000 0.000000
58 1 1 34.433170 0.710000 0.000000
59 1 1 34.433170 2.130000 0.000000
60 1 1 35.662926 2.840000 0.000000
61 1 1 38.122438 0.000000 0.000000
62 1 1 36.892682 0.710000 0.000000
63 1 1 36.892682 2.130000 0.000000
64 1 1 38.122438 2.840000 0.000000
65 1 1 40.581950 0.000000 0.000000
66 1 1 39.352194 0.710000 0.000000
67 1 1 39.352194 2.130000 0.000000
68 1 1 40.581950 2.840000 0.000000
69 1 1 43.041463 0.000000 0.000000
70 1 1 41.811706 0.710000 0.000000
71 1 1 41.811706 2.130000 0.000000
72 1 1 43.041463 2.840000 0.000000
73 1 1 45.500975 0.000000 0.000000
74 1 1 44.271219 0.710000 0.000000
75 1 1 44.271219 2.130000 0.000000
76 1 1 45.500975 2.840000 0.000000
77 1 1 47.960487 0.000000 0.000000
78 1 1 46.730731 0.710000 0.000000
79 1 1 46.730731 2.130000 0.000000
80 1 1 47.960487 2.840000 0.000000
81 1 1 50.419999 0.000000 0.000000
82 1 1 49.190243 0.710000 0.000000
83 1 1 49.190243 2.130000 0.000000
84 1 1 50.419999 2.840000 0.000000
85 1 1 52.879511 0.000000 0.000000
86 1 1 51.649755 0.710000 0.000000
87 1 1 51.649755 2.130000 0.000000
88 1 1 52.879511 2.840000 0.000000
89 1 1 55.339023 0.000000 0.000000
90 1 1 54.109267 0.710000 0.000000
91 1 1 54.109267 2.130000 0.000000
92 1 1 55.339023 2.840000 0.000000
93 1 1 57.798535 0.000000 0.000000
94 1 1 56.568779 0.710000 0.000000
95 1 1 56.568779 2.130000 0.000000
96 1 1 57.798535 2.840000 0.000000
97 1 1 60.258048 0.000000 0.000000
98 1 1 59.028292 0.710000 0.000000
99 1 1 59.028292 2.130000 0.000000
100 1 1 60.258048 2.840000 0.000000
101 1 1 62.717560 0.000000 0.000000
102 1 1 61.487804 0.710000 0.000000
103 1 1 61.487804 2.130000 0.000000
104 1 1 62.717560 2.840000 0.000000
105 1 1 65.177072 0.000000 0.000000
106 1 1 63.947316 0.710000 0.000000
107 1 1 63.947316 2.130000 0.000000
108 1 1 65.177072 2.840000 0.000000
109 1 1 67.636584 0.000000 0.000000
110 1 1 66.406828 0.710000 0.000000
111 1 1 66.406828 2.130000 0.000000
112 1 1 67.636584 2.840000 0.000000
113 1 1 70.096096 0.000000 0.000000
114 1 1 68.866340 0.710000 0.000000
115 1 1 68.866340 2.130000 0.000000
116 1 1 70.096096 2.840000 0.000000
117 1 1 72.555608 0.000000 0.000000
118 1 1 71.325852 0.710000 0.000000
119 1 1 71.325852 2.130000 0.000000
120 1 1 72.555608 2.840000 0.000000
121 1 1 1.229756 4.260000 0.000000
122 1 1 0.000000 4.970000 0.000000
123 1 1 0.000000 6.390000 0.000000
124 1 1 1.229756 7.100000 0.000000
125 1 1 3.689268 4.260000 0.000000
126 1 1 2.459512 4.970000 0.000000
127 1 1 2.459512 6.390000 0.000000
128 1 1 3.689268 7.100000 0.000000
129 1 1 6.148780 4.260000 0.000000
130 1 1 4.919024 4.970000 0.000000
131 1 1 4.919024 6.390000 0.000000
132 1 1 6.148780 7.100000 0.000000
133 1 1 8.608293 4.260000 0.000000
134 1 1 7.378536 4.970000 0.000000
135 1 1 7.378536 6.390000 0.000000
136 1 1 8.608293 7.100000 0.000000
137 1 1 11.067805 4.260000 0.000000
138 1 1 9.838049 4.970000 0.000000
139 1 1 9.838049 6.390000 0.000000
140 1 1 11.067805 7.100000 0.000000
141 1 1 13.527317 4.260000 0.000000
142 1 1 12.297561 4.970000 0.000000
143 1 1 12.297561 6.390000 0.000000
144 1 1 13.527317 7.100000 0.000000
145 1 1 15.986829 4.260000 0.000000
146 1 1 14.757073 4.970000 0.000000
147 1 1 14.757073 6.390000 0.000000
148 1 1 15.986829 7.100000 0.000000
149 1 1 18.446341 4.260000 0.000000
150 1 1 17.216585 4.970000 0.000000
151 1 1 17.216585 6.390000 0.000000
152 1 1 18.446341 7.100000 0.000000
153 1 1 20.905853 4.260000 0.000000
154 1 1 19.676097 4.970000 0.000000
155 1 1 19.676097 6.390000 0.000000
156 1 1 20.905853 7.100000 0.000000
157 1 1 23.365365 4.260000 0.000000
158 1 1 22.135609 4.970000 0.000000
159 1 1 22.135609 6.390000 0.000000
160 1 1 23.365365 7.100000 0.000000
161 1 1 25.824878 4.260000 0.000000
162 1 1 24.595121 4.970000 0.000000
163 1 1 24.595121 6.390000 0.000000
164 1 1 25.824878 7.100000 0.000000
165 1 1 28.284390 4.260000 0.000000
166 1 1 27.054634 4.970000 0.000000
167 1 1 27.054634 6.390000 0.000000
168 1 1 28.284390 7.100000 0.000000
169 1 1 30.743902 4.260000 0.000000
170 1 1 29.514146 4.970000 0.000000
171 1 1 29.514146 6.390000 0.000000
172 1 1 30.743902 7.100000 0.000000
173 1 1 33.203414 4.260000 0.000000
174 1 1 31.973658 4.970000 0.000000
175 1 1 31.973658 6.390000 0.000000
176 1 1 33.203414 7.100000 0.000000
177 1 1 35.662926 4.260000 0.000000
178 1 1 34.433170 4.970000 0.000000
179 1 1 34.433170 6.390000 0.000000
180 1 1 35.662926 7.100000 0.000000
181 1 1 38.122438 4.260000 0.000000
182 1 1 36.892682 4.970000 0.000000
183 1 1 36.892682 6.390000 0.000000
184 1 1 38.122438 7.100000 0.000000
185 1 1 40.581950 4.260000 0.000000
186 1 1 39.352194 4.970000 0.000000
187 1 1 39.352194 6.390000 0.000000
188 1 1 40.581950 7.100000 0.000000
189 1 1 43.041463 4.260000 0.000000
190 1 1 41.811706 4.970000 0.000000
191 1 1 41.811706 6.390000 0.000000
192 1 1 43.041463 7.100000 0.000000
193 1 1 45.500975 4.260000 0.000000
194 1 1 44.271219 4.970000 0.000000
195 1 1 44.271219 6.390000 0.000000
196 1 1 45.500975 7.100000 0.000000
197 1 1 47.960487 4.260000 0.000000
198 1 1 46.730731 4.970000 0.000000
199 1 1 46.730731 6.390000 0.000000
200 1 1 47.960487 7.100000 0.000000
201 1 1 50.419999 4.260000 0.000000
202 1 1 49.190243 4.970000 0.000000
203 1 1 49.190243 6.390000 0.000000
204 1 1 50.419999 7.100000 0.000000
205 1 1 52.879511 4.260000 0.000000
206 1 1 51.649755 4.970000 0.000000
207 1 1 51.649755 6.390000 0.000000
208 1 1 52.879511 7.100000 0.000000
209 1 1 55.339023 4.260000 0.000000
210 1 1 54.109267 4.970000 0.000000
211 1 1 54.109267 6.390000 0.000000
212 1 1 55.339023 7.100000 0.000000
213 1 1 57.798535 4.260000 0.000000
214 1 1 56.568779 4.970000 0.000000
215 1 1 56.568779 6.390000 0.000000
216 1 1 57.798535 7.100000 0.000000
217 1 1 60.258048 4.260000 0.000000
218 1 1 59.028292 4.970000 0.000000
219 1 1 59.028292 6.390000 0.000000
220 1 1 60.258048 7.100000 0.000000
221 1 1 62.717560 4.260000 0.000000
222 1 1 61.487804 4.970000 0.000000
223 1 1 61.487804 6.390000 0.000000
224 1 1 62.717560 7.100000 0.000000
225 1 1 65.177072 4.260000 0.000000
226 1 1 63.947316 4.970000 0.000000
227 1 1 63.947316 6.390000 0.000000
228 1 1 65.177072 7.100000 0.000000
229 1 1 67.636584 4.260000 0.000000
230 1 1 66.406828 4.970000 0.000000
231 1 1 66.406828 6.390000 0.000000
232 1 1 67.636584 7.100000 0.000000
233 1 1 70.096096 4.260000 0.000000
234 1 1 68.866340 4.970000 0.000000
235 1 1 68.866340 6.390000 0.000000
236 1 1 70.096096 7.100000 0.000000
237 1 1 72.555608 4.260000 0.000000
238 1 1 71.325852 4.970000 0.000000
239 1 1 71.325852 6.390000 0.000000
240 1 1 72.555608 7.100000 0.000000
241 1 1 1.229756 8.520000 0.000000
242 1 1 0.000000 9.230000 0.000000
243 1 1 0.000000 10.650000 0.000000
244 1 1 1.229756 11.360000 0.000000
245 1 1 3.689268 8.520000 0.000000
246 1 1 2.459512 9.230000 0.000000
247 1 1 2.459512 10.650000 0.000000
248 1 1 3.689268 11.360000 0.000000
249 1 1 6.148780 8.520000 0.000000
250 1 1 4.919024 9.230000 0.000000
251 1 1 4.919024 10.650000 0.000000
252 1 1 6.148780 11.360000 0.000000
253 1 1 8.608293 8.520000 0.000000
254 1 1 7.378536 9.230000 0.000000
255 1 1 7.378536 10.650000 0.000000
256 1 1 8.608293 11.360000 0.000000
257 1 1 11.067805 8.520000 0.000000
258 1 1 9.838049 9.230000 0.000000
259 1 1 9.838049 10.650000 0.000000
260 1 1 11.067805 11.360000 0.000000
261 1 1 13.527317 8.520000 0.000000
262 1 1 12.297561 9.230000 0.000000
263 1 1 12.297561 10.650000 0.000000
264 1 1 13.527317 11.360000 0.000000
265 1 1 15.986829 8.520000 0.000000
266 1 1 14.757073 9.230000 0.000000
267 1 1 14.757073 10.650000 0.000000
268 1 1 15.986829 11.360000 0.000000
269 1 1 18.446341 8.520000 0.000000
270 1 1 17.216585 9.230000 0.000000
271 1 1 17.216585 10.650000 0.000000
272 1 1 18.446341 11.360000 0.000000
273 1 1 20.905853 8.520000 0.000000
274 1 1 19.676097 9.230000 0.000000
275 1 1 19.676097 10.650000 0.000000
276 1 1 20.905853 11.360000 0.000000
277 1 1 23.365365 8.520000 0.000000
278 1 1 22.135609 9.230000 0.000000
279 1 1 22.135609 10.650000 0.000000
280 1 1 23.365365 11.360000 0.000000
281 1 1 25.824878 8.520000 0.000000
282 1 1 24.595121 9.230000 0.000000
283 1 1 24.595121 10.650000 0.000000
284 1 1 25.824878 11.360000 0.000000
285 1 1 28.284390 8.520000 0.000000
286 1 1 27.054634 9.230000 0.000000
287 1 1 27.054634 10.650000 0.000000
288 1 1 28.284390 11.360000 0.000000
289 1 1 30.743902 8.520000 0.000000
290 1 1 29.514146 9.230000 0.000000
291 1 1 29.514146 10.650000 0.000000
292 1 1 30.743902 11.360000 0.000000
293 1 1 33.203414 8.520000 0.000000
294 1 1 31.973658 9.230000 0.000000
295 1 1 31.973658 10.650000 0.000000
296 1 1 33.203414 11.360000 0.000000
297 1 1 35.662926 8.520000 0.000000
298 1 1 34.433170 9.230000 0.000000
299 1 1 34.433170 10.650000 0.000000
300 1 1 35.662926 11.360000 0.000000
301 1 1 38.122438 8.520000 0.000000
302 1 1 36.892682 9.230000 0.000000
303 1 1 36.892682 10.650000 0.000000
304 1 1 38.122438 11.360000 0.000000
305 1 1 40.581950 8.520000 0.000000
306 1 1 39.352194 9.230000 0.000000
307 1 1 39.352194 10.650000 0.000000
308 1 1 40.581950 11.360000 0.000000
309 1 1 43.041463 8.520000 0.000000
310 1 1 41.811706 9.230000 0.000000
311 1 1 41.811706 10.650000 0.000000
312 1 1 43.041463 11.360000 0.000000
313 1 1 45.500975 8.520000 0.000000
314 1 1 44.271219 9.230000 0.000000
315 1 1 44.271219 10.650000 0.000000
316 1 1 45.500975 11.360000 0.000000
317 1 1 47.960487 8.520000 0.000000
318 1 1 46.730731 9.230000 0.000000
319 1 1 46.730731 10.650000 0.000000
320 1 1 47.960487 11.360000 0.000000
321 1 1 50.419999 8.520000 0.000000
322 1 1 49.190243 9.230000 0.000000
323 1 1 49.190243 10.650000 0.000000
324 1 1 50.419999 11.360000 0.000000
325 1 1 52.879511 8.520000 0.000000
326 1 1 51.649755 9.230000 0.000000
327 1 1 51.649755 10.650000 0.000000
328 1 1 52.879511 11.360000 0.000000
329 1 1 55.339023 8.520000 0.000000
330 1 1 54.109267 9.230000 0.000000
331 1 1 54.109267 10.650000 0.000000
332 1 1 55.339023 11.360000 0.000000
333 1 1 57.798535 8.520000 0.000000
334 1 1 56.568779 9.230000 0.000000
335 1 1 56.568779 10.650000 0.000000
336 1 1 57.798535 11.360000 0.000000
337 1 1 60.258048 8.520000 0.000000
338 1 1 59.028292 9.230000 0.000000
339 1 1 59.028292 10.650000 0.000000
340 1 1 60.258048 11.360000 0.000000
341 1 1 62.717560 8.520000 0.000000
342 1 1 61.487804 9.230000 0.000000
343 1 1 61.487804 10.650000 0.000000
344 1 1 62.717560 11.360000 0.000000
345 1 1 65.177072 8.520000 0.000000
346 1 1 63.947316 9.230000 0.000000
347 1 1 63.947316 10.650000 0.000000
348 1 1 65.177072 11.360000 0.000000
349 1 1 67.636584 8.520000 0.000000
350 1 1 66.406828 9.230000 0.000000
351 1 1 66.406828 10.650000 0.000000
352 1 1 67.636584 11.360000 0.000000
353 1 1 70.096096 8.520000 0.000000
354 1 1 68.866340 9.230000 0.000000
355 1 1 68.866340 10.650000 0.000000
356 1 1 70.096096 11.360000 0.000000
357 1 1 72.555608 8.520000 0.000000
358 1 1 71.325852 9.230000 0.000000
359 1 1 71.325852 10.650000 0.000000
360 1 1 72.555608 11.360000 0.000000
361 1 1 1.229756 12.780000 0.000000
362 1 1 0.000000 13.490000 0.000000
363 1 1 0.000000 14.910000 0.000000
364 1 1 1.229756 15.620000 0.000000
365 1 1 3.689268 12.780000 0.000000
366 1 1 2.459512 13.490000 0.000000
367 1 1 2.459512 14.910000 0.000000
368 1 1 3.689268 15.620000 0.000000
369 1 1 6.148780 12.780000 0.000000
370 1 1 4.919024 13.490000 0.000000
371 1 1 4.919024 14.910000 0.000000
372 1 1 6.148780 15.620000 0.000000
373 1 1 8.608293 12.780000 0.000000
374 1 1 7.378536 13.490000 0.000000
375 1 1 7.378536 14.910000 0.000000
376 1 1 8.608293 15.620000 0.000000
377 1 1 11.067805 12.780000 0.000000
378 1 1 9.838049 13.490000 0.000000
379 1 1 9.838049 14.910000 0.000000
380 1 1 11.067805 15.620000 0.000000
381 1 1 13.527317 12.780000 0.000000
382 1 1 12.297561 13.490000 0.000000
383 1 1 12.297561 14.910000 0.000000
384 1 1 13.527317 15.620000 0.000000
385 1 1 15.986829 12.780000 0.000000
386 1 1 14.757073 13.490000 0.000000
387 1 1 14.757073 14.910000 0.000000
388 1 1 15.986829 15.620000 0.000000
389 1 1 18.446341 12.780000 0.000000
390 1 1 17.216585 13.490000 0.000000
391 1 1 17.216585 14.910000 0.000000
392 1 1 18.446341 15.620000 0.000000
393 1 1 20.905853 12.780000 0.000000
394 1 1 19.676097 13.490000 0.000000
395 1 1 19.676097 14.910000 0.000000
396 1 1 20.905853 15.620000 0.000000
397 1 1 23.365365 12.780000 0.000000
398 1 1 22.135609 13.490000 0.000000
399 1 1 22.135609 14.910000 0.000000
400 1 1 23.365365 15.620000 0.000000
401 1 1 25.824878 12.780000 0.000000
402 1 1 24.595121 13.490000 0.000000
403 1 1 24.595121 14.910000 0.000000
404 1 1 25.824878 15.620000 0.000000
405 1 1 28.284390 12.780000 0.000000
406 1 1 27.054634 13.490000 0.000000
407 1 1 27.054634 14.910000 0.000000
408 1 1 28.284390 15.620000 0.000000
409 1 1 30.743902 12.780000 0.000000
410 1 1 29.514146 13.490000 0.000000
411 1 1 29.514146 14.910000 0.000000
412 1 1 30.743902 15.620000 0.000000
413 1 1 33.203414 12.780000 0.000000
414 1 1 31.973658 13.490000 0.000000
415 1 1 31.973658 14.910000 0.000000
416 1 1 33.203414 15.620000 0.000000
417 1 1 35.662926 12.780000 0.000000
418 1 1 34.433170 13.490000 0.000000
419 1 1 34.433170 14.910000 0.000000
420 1 1 35.662926 15.620000 0.000000
421 1 1 38.122438 12.780000 0.000000
422 1 1 36.892682 13.490000 0.000000
423 1 1 36.892682 14.910000 0.000000
424 1 1 38.122438 15.620000 0.000000
425 1 1 40.581950 12.780000 0.000000
426 1 1 39.352194 13.490000 0.000000
427 1 1 39.352194 14.910000 0.000000
428 1 1 40.581950 15.620000 0.000000
429 1 1 43.041463 12.780000 0.000000
430 1 1 41.811706 13.490000 0.000000
431 1 1 41.811706 14.910000 0.000000
432 1 1 43.041463 15.620000 0.000000
433 1 1 45.500975 12.780000 0.000000
434 1 1 44.271219 13.490000 0.000000
435 1 1 44.271219 14.910000 0.000000
436 1 1 45.500975 15.620000 0.000000
437 1 1 47.960487 12.780000 0.000000
438 1 1 46.730731 13.490000 0.000000
439 1 1 46.730731 14.910000 0.000000
440 1 1 47.960487 15.620000 0.000000
441 1 1 50.419999 12.780000 0.000000
442 1 1 49.190243 13.490000 0.000000
443 1 1 49.190243 14.910000 0.000000
444 1 1 50.419999 15.620000 0.000000
445 1 1 52.879511 12.780000 0.000000
446 1 1 51.649755 13.490000 0.000000
447 1 1 51.649755 14.910000 0.000000
448 1 1 52.879511 15.620000 0.000000
449 1 1 55.339023 12.780000 0.000000
450 1 1 54.109267 13.490000 0.000000
451 1 1 54.109267 14.910000 0.000000
452 1 1 55.339023 15.620000 0.000000
453 1 1 57.798535 12.780000 0.000000
454 1 1 56.568779 13.490000 0.000000
455 1 1 56.568779 14.910000 0.000000
456 1 1 57.798535 15.620000 0.000000
457 1 1 60.258048 12.780000 0.000000
458 1 1 59.028292 13.490000 0.000000
459 1 1 59.028292 14.910000 0.000000
460 1 1 60.258048 15.620000 0.000000
461 1 1 62.717560 12.780000 0.000000
462 1 1 61.487804 13.490000 0.000000
463 1 1 61.487804 14.910000 0.000000
464 1 1 62.717560 15.620000 0.000000
465 1 1 65.177072 12.780000 0.000000
466 1 1 63.947316 13.490000 0.000000
467 1 1 63.947316 14.910000 0.000000
468 1 1 65.177072 15.620000 0.000000
469 1 1 67.636584 12.780000 0.000000
470 1 1 66.406828 13.490000 0.000000
471 1 1 66.406828 14.910000 0.000000
472 1 1 67.636584 15.620000 0.000000
473 1 1 70.096096 12.780000 0.000000
474 1 1 68.866340 13.490000 0.000000
475 1 1 68.866340 14.910000 0.000000
476 1 1 70.096096 15.620000 0.000000
477 1 1 72.555608 12.780000 0.000000
478 1 1 71.325852 13.490000 0.000000
479 1 1 71.325852 14.910000 0.000000
480 1 1 72.555608 15.620000 0.000000
