ITEM: TIMESTEP
0
ITEM: NUMBER OF ATOMS
256     
ITEM: BOX BOUNDS pp pp pp
0.000000000      14.080000000    
0.000000000      14.080000000    
0.000000000      14.080000000    
ITEM: ATOMS id mol type xu yu zu
1 1 1 0.000000 0.000000 0.000000
2 1 1 1.760000 1.760000 0.000000
3 1 1 0.000000 1.760000 1.760000
4 1 1 1.760000 0.000000 1.760000
5 1 1 3.520000 0.000000 0.000000
6 1 1 5.280000 1.760000 0.000000
7 1 1 3.520000 1.760000 1.760000
8 1 1 5.280000 0.000000 1.760000
9 1 1 7.040000 0.000000 0.000000
10 1 1 8.800000 1.760000 0.000000
11 1 1 7.040000 1.760000 1.760000
12 1 1 8.800000 0.000000 1.760000
13 1 1 10.560000 0.000000 0.000000
14 1 1 12.320000 1.760000 0.000000
15 1 1 10.560000 1.760000 1.760000
16 1 1 12.320000 0.000000 1.760000
17 1 1 0.000000 3.520000 0.000000
18 1 1 1.760000 5.280000 0.000000
19 1 1 0.000000 5.280000 1.760000
20 1 1 1.760000 3.520000 1.760000
21 1 1 3.520000 3.520000 0.000000
22 1 1 5.280000 5.280000 0.000000
23 1 1 3.520000 5.280000 1.760000
24 1 1 5.280000 3.520000 1.760000
25 1 1 7.040000 3.520000 0.000000
26 1 1 8.800000 5.280000 0.000000
27 1 1 7.040000 5.280000 1.760000
28 1 1 8.800000 3.520000 1.760000
29 1 1 10.560000 3.520000 0.000000
30 1 1 12.320000 5.280000 0.000000
31 1 1 10.560000 5.280000 1.760000
32 1 1 12.320000 3.520000 1.760000
33 1 1 0.000000 7.040000 0.000000
34 1 1 1.760000 8.800000 0.000000
35 1 1 0.000000 8.800000 1.760000
36 1 1 1.760000 7.040000 1.760000
37 1 1 3.520000 7.040000 0.000000
38 1 1 5.280000 8.800000 0.000000
39 1 1 3.520000 8.800000 1.760000
40 1 1 5.280000 7.040000 1.760000
41 1 1 7.040000 7.040000 0.000000
42 1 1 8.800000 8.800000 0.000000
43 1 1 7.040000 8.800000 1.760000
44 1 1 8.800000 7.040000 1.760000
45 1 1 10.560000 7.040000 0.000000
46 1 1 12.320000 8.800000 0.000000
47 1 1 10.560000 8.800000 1.760000
48 1 1 12.320000 7.040000 1.760000
49 1 1 0.000000 10.560000 0.000000
50 1 1 1.760000 12.320000 0.000000
51 1 1 0.000000 12.320000 1.760000
52 1 1 1.760000 10.560000 1.760000
53 1 1 3.520000 10.560000 0.000000
54 1 1 5.280000 12.320000 0.000000
55 1 1 3.520000 12.320000 1.760000
56 1 1 5.280000 10.560000 1.760000
57 1 1 7.040000 10.560000 0.000000
58 1 1 8.800000 12.320000 0.000000
59 1 1 7.040000 12.320000 1.760000
60 1 1 8.800000 10.560000 1.760000
61 1 1 10.560000 10.560000 0.000000
62 1 1 12.320000 12.320000 0.000000
63 1 1 10.560000 12.320000 1.760000
64 1 1 12.320000 10.560000 1.760000
65 1 1 0.000000 0.000000 3.520000
66 1 1 1.760000 1.760000 3.520000
67 1 1 0.000000 1.760000 5.280000
68 1 1 1.760000 0.000000 5.280000
69 1 1 3.520000 0.000000 3.520000
70 1 1 5.280000 1.760000 3.520000
71 1 1 3.520000 1.760000 5.280000
72 1 1 5.280000 0.000000 5.280000
73 1 1 7.040000 0.000000 3.520000
74 1 1 8.800000 1.760000 3.520000
75 1 1 7.040000 1.760000 5.280000
76 1 1 8.800000 0.000000 5.280000
77 1 1 10.560000 0.000000 3.520000
78 1 1 12.320000 1.760000 3.520000
79 1 1 10.560000 1.760000 5.280000
80 1 1 12.320000 0.000000 5.280000
81 1 1 0.000000 3.520000 3.520000
82 1 1 1.760000 5.280000 3.520000
83 1 1 0.000000 5.280000 5.280000
84 1 1 1.760000 3.520000 5.280000
85 1 1 3.520000 3.520000 3.520000
86 1 1 5.280000 5.280000 3.520000
87 1 1 3.520000 5.280000 5.280000
88 1 1 5.280000 3.520000 5.280000
89 1 1 7.040000 3.520000 3.520000
90 1 1 8.800000 5.280000 3.520000
91 1 1 7.040000 5.280000 5.280000
92 1 1 8.800000 3.520000 5.280000
93 1 1 10.560000 3.520000 3.520000
94 1 1 12.320000 5.280000 3.520000
95 1 1 10.560000 5.280000 5.280000
96 1 1 12.320000 3.520000 5.280000
97 1 1 0.000000 7.040000 3.520000
98 1 1 1.760000 8.800000 3.520000
99 1 1 0.000000 8.800000 5.280000
100 1 1 1.760000 7.040000 5.280000
101 1 1 3.520000 7.040000 3.520000
102 1 1 5.280000 8.800000 3.520000
103 1 1 3.520000 8.800000 5.280000
104 1 1 5.280000 7.040000 5.280000
105 1 1 7.040000 7.040000 3.520000
106 1 1 8.800000 8.800000 3.520000
107 1 1 7.040000 8.800000 5.280000
108 1 1 8.800000 7.040000 5.280000
109 1 1 10.560000 7.040000 3.520000
110 1 1 12.320000 8.800000 3.520000
111 1 1 10.560000 8.800000 5.280000
112 1 1 12.320000 7.040000 5.280000
113 1 1 0.000000 10.560000 3.520000
114 1 1 1.760000 12.320000 3.520000
115 1 1 0.000000 12.320000 5.280000
116 1 1 1.760000 10.560000 5.280000
117 1 1 3.520000 10.560000 3.520000
118 1 1 5.280000 12.320000 3.520000
119 1 1 3.520000 12.320000 5.280000
120 1 1 5.280000 10.560000 5.280000
121 1 1 7.040000 10.560000 3.520000
122 1 1 8.800000 12.320000 3.520000
123 1 1 7.040000 12.320000 5.280000
124 1 1 8.800000 10.560000 5.280000
125 1 1 10.560000 10.560000 3.520000
126 1 1 12.320000 12.320000 3.520000
127 1 1 10.560000 12.320000 5.280000
128 1 1 12.320000 10.560000 5.280000
129 1 1 0.000000 0.000000 7.040000
130 1 1 1.760000 1.760000 7.040000
131 1 1 0.000000 1.760000 8.800000
132 1 1 1.760000 0.000000 8.800000
133 1 1 3.520000 0.000000 7.040000
134 1 1 5.280000 1.760000 7.040000
135 1 1 3.520000 1.760000 8.800000
136 1 1 5.280000 0.000000 8.800000
137 1 1 7.040000 0.000000 7.040000
138 1 1 8.800000 1.760000 7.040000
139 1 1 7.040000 1.760000 8.800000
140 1 1 8.800000 0.000000 8.800000
141 1 1 10.560000 0.000000 7.040000
142 1 1 12.320000 1.760000 7.040000
143 1 1 10.560000 1.760000 8.800000
144 1 1 12.320000 0.000000 8.800000
145 1 1 0.000000 3.520000 7.040000
146 1 1 1.760000 5.280000 7.040000
147 1 1 0.000000 5.280000 8.800000
148 1 1 1.760000 3.520000 8.800000
149 1 1 3.520000 3.520000 7.040000
150 1 1 5.280000 5.280000 7.040000
151 1 1 3.520000 5.280000 8.800000
152 1 1 5.280000 3.520000 8.800000
153 1 1 7.040000 3.520000 7.040000
154 1 1 8.800000 5.280000 7.040000
155 1 1 7.040000 5.280000 8.800000
156 1 1 8.800000 3.520000 8.800000
157 1 1 10.560000 3.520000 7.040000
158 1 1 12.320000 5.280000 7.040000
159 1 1 10.560000 5.280000 8.800000
160 1 1 12.320000 3.520000 8.800000
161 1 1 0.000000 7.040000 7.040000
162 1 1 1.760000 8.800000 7.040000
163 1 1 0.000000 8.800000 8.800000
164 1 1 1.760000 7.040000 8.800000
165 1 1 3.520000 7.040000 7.040000
166 1 1 5.280000 8.800000 7.040000
167 1 1 3.520000 8.800000 8.800000
168 1 1 5.280000 7.040000 8.800000
169 1 1 7.040000 7.040000 7.040000
170 1 1 8.800000 8.800000 7.040000
171 1 1 7.040000 8.800000 8.800000
172 1 1 8.800000 7.040000 8.800000
173 1 1 10.560000 7.040000 7.040000
174 1 1 12.320000 8.800000 7.040000
175 1 1 10.560000 8.800000 8.800000
176 1 1 12.320000 7.040000 8.800000
177 1 1 0.000000 10.560000 7.040000
178 1 1 1.760000 12.320000 7.040000
179 1 1 0.000000 12.320000 8.800000
180 1 1 1.760000 10.560000 8.800000
181 1 1 3.520000 10.560000 7.040000
182 1 1 5.280000 12.320000 7.040000
183 1 1 3.520000 12.320000 8.800000
184 1 1 5.280000 10.560000 8.800000
185 1 1 7.040000 10.560000 7.040000
186 1 1 8.800000 12.320000 7.040000
187 1 1 7.040000 12.320000 8.800000
188 1 1 8.800000 10.560000 8.800000
189 1 1 10.560000 10.560000 7.040000
190 1 1 12.320000 12.320000 7.040000
191 1 1 10.560000 12.320000 8.800000
192 1 1 12.320000 10.560000 8.800000
193 1 1 0.000000 0.000000 10.560000
194 1 1 1.760000 1.760000 10.560000
195 1 1 0.000000 1.760000 12.320000
196 1 1 1.760000 0.000000 12.320000
197 1 1 3.520000 0.000000 10.560000
198 1 1 5.280000 1.760000 10.560000
199 1 1 3.520000 1.760000 12.320000
200 1 1 5.280000 0.000000 12.320000
201 1 1 7.040000 0.000000 10.560000
202 1 1 8.800000 1.760000 10.560000
203 1 1 7.040000 1.760000 12.320000
204 1 1 8.800000 0.000000 12.320000
205 1 1 10.560000 0.000000 10.560000
206 1 1 12.320000 1.760000 10.560000
207 1 1 10.560000 1.760000 12.320000
208 1 1 12.320000 0.000000 12.320000
209 1 1 0.000000 3.520000 10.560000
210 1 1 1.760000 5.280000 10.560000
211 1 1 0.000000 5.280000 12.320000
212 1 1 1.760000 3.520000 12.320000
213 1 1 3.520000 3.520000 10.560000
214 1 1 5.280000 5.280000 10.560000
215 1 1 3.520000 5.280000 12.320000
216 1 1 5.280000 3.520000 12.320000
217 1 1 7.040000 3.520000 10.560000
218 1 1 8.800000 5.280000 10.560000
219 1 1 7.040000 5.280000 12.320000
220 1 1 8.800000 3.520000 12.320000
221 1 1 10.560000 3.520000 10.560000
222 1 1 12.320000 5.280000 10.560000
223 1 1 10.560000 5.280000 12.320000
224 1 1 12.320000 3.520000 12.320000
225 1 1 0.000000 7.040000 10.560000
226 1 1 1.760000 8.800000 10.560000
227 1 1 0.000000 8.800000 12.320000
228 1 1 1.760000 7.040000 12.320000
229 1 1 3.520000 7.040000 10.560000
230 1 1 5.280000 8.800000 10.560000
231 1 1 3.520000 8.800000 12.320000
232 1 1 5.280000 7.040000 12.320000
233 1 1 7.040000 7.040000 10.560000
234 1 1 8.800000 8.800000 10.560000
235 1 1 7.040000 8.800000 12.320000
236 1 1 8.800000 7.040000 12.320000
237 1 1 10.560000 7.040000 10.560000
238 1 1 12.320000 8.800000 10.560000
239 1 1 10.560000 8.800000 12.320000
240 1 1 12.320000 7.040000 12.320000
241 1 1 0.000000 10.560000 10.560000
242 1 1 1.760000 12.320000 10.560000
243 1 1 0.000000 12.320000 12.320000
244 1 1 1.760000 10.560000 12.320000
245 1 1 3.520000 10.560000 10.560000
246 1 1 5.280000 12.320000 10.560000
247 1 1 3.520000 12.320000 12.320000
248 1 1 5.280000 10.560000 12.320000
249 1 1 7.040000 10.560000 10.560000
250 1 1 8.800000 12.320000 10.560000
251 1 1 7.040000 12.320000 12.320000
252 1 1 8.800000 10.560000 12.320000
253 1 1 10.560000 10.560000 10.560000
254 1 1 12.320000 12.320000 10.560000
255 1 1 10.560000 12.320000 12.320000
256 1 1 12.320000 10.560000 12.320000
