# cwd: o.res_pa_m/run.c6_eps0.01
# cmd: mpirun -np 3 pw.x -in qe.in


     Program PWSCF v.6.7MaX starts on 12Nov2025 at 12:59:26 

     This program is part of the open-source Quantum ESPRESSO suite
     for quantum simulation of materials; please cite
         "P. Giannozzi et al., J. Phys.:Condens. Matter 21 395502 (2009);
         "P. Giannozzi et al., J. Phys.:Condens. Matter 29 465901 (2017);
          URL http://www.quantum-espresso.org", 
     in publications or presentations arising from this work. More details at
     http://www.quantum-espresso.org/quote

     Parallel version (MPI), running on     3 processors

     MPI processes distributed on     1 nodes
     R & G space division:  proc/nbgrp/npool/nimage =       3
     Reading input from qe.in

     Current dimensions of program PWSCF are:
     Max number of different atomic species (ntypx) = 10
     Max number of k-points (npk) =  40000
     Max angular momentum in pseudopotentials (lmaxx) =  3
     file N.pbe-n-kjpaw_psl.1.0.0.UPF: wavefunction(s)  2S renormalized

     Subspace diagonalization in iterative solution of the eigenvalue problem:
     a serial algorithm will be used

     Message from routine setup:
     using ibrav=0 with symmetry is DISCOURAGED, use correct ibrav instead

     Parallelization info
     --------------------
     sticks:   dense  smooth     PW     G-vecs:    dense   smooth      PW
     Min         248     124     40                44054    15564    2966
     Max         249     125     41                44085    15575    2995
     Sum         745     373    121               132193    46703    8935



     bravais-lattice index     =            0
     lattice parameter (alat)  =       4.7519  a.u.
     unit-cell volume          =     743.3995 (a.u.)^3
     number of atoms/cell      =            2
     number of atomic types    =            2
     number of electrons       =         8.00
     number of Kohn-Sham states=            8
     kinetic-energy cutoff     =      60.0000  Ry
     charge density cutoff     =     480.0000  Ry
     scf convergence threshold =      1.0E-08
     mixing beta               =       0.7000
     number of iterations used =            8  plain     mixing
     energy convergence thresh.=      1.0E-04
     force convergence thresh. =      1.0E-03
     Exchange-correlation= SLA  PW   PBX  PBC
                           (   1   4   3   4   0   0   0)
     nstep                     =           50


     celldm(1)=   4.751900  celldm(2)=   0.000000  celldm(3)=   0.000000
     celldm(4)=   0.000000  celldm(5)=   0.000000  celldm(6)=   0.000000

     crystal axes: (cart. coord. in units of alat)
               a(1) = (   1.000000   0.000000   0.000000 )  
               a(2) = (   0.508660   0.866025   0.000000 )  
               a(3) = (   0.000000   0.000000   8.000000 )  

     reciprocal axes: (cart. coord. in units 2 pi/alat)
               b(1) = (  1.000000 -0.587351  0.000000 )  
               b(2) = (  0.000000  1.154701  0.000000 )  
               b(3) = (  0.000000  0.000000  0.125000 )  


     PseudoPot. # 1 for B  read from file:
     ../../PSEUDO/B.pbe-n-kjpaw_psl.1.0.0.UPF
     MD5 check sum: cdf8f75bef5223b293e087bc2c755083
     Pseudo is Projector augmented-wave + core cor, Zval =  3.0
     Generated using 'atomic' code by A. Dal Corso  v.7.0
     Shape of augmentation charge: PSQ
     Using radial grid of 1059 points,  4 beta functions with: 
                l(1) =   0
                l(2) =   0
                l(3) =   1
                l(4) =   1
     Q(r) pseudized with 0 coefficients 


     PseudoPot. # 2 for N  read from file:
     ../../PSEUDO/N.pbe-n-kjpaw_psl.1.0.0.UPF
     MD5 check sum: 0fbee1c51453e7d4733b1acc8ff6f686
     Pseudo is Projector augmented-wave + core cor, Zval =  5.0
     Generated using 'atomic' code by A. Dal Corso  v.7.0
     Shape of augmentation charge: PSQ
     Using radial grid of 1085 points,  4 beta functions with: 
                l(1) =   0
                l(2) =   0
                l(3) =   1
                l(4) =   1
     Q(r) pseudized with 0 coefficients 


     atomic species   valence    mass     pseudopotential
        B              3.00    10.81000     B ( 1.00)
        N              5.00    14.01000     N ( 1.00)

      2 Sym. Ops. (no inversion) found



   Cartesian axes

     site n.     atom                  positions (alat units)
         1           B   tau(   1) = (   0.0000000   0.0000000   0.0000000  )
         2           N   tau(   2) = (   0.5028866   0.2886610   0.0000000  )

     number of k points=    34  Gaussian smearing, width (Ry)=  0.0010
                       cart. coord. in units 2pi/alat
        k(    1) = (   0.0000000   0.0000000   0.0000000), wk =   0.0312500
        k(    2) = (   0.0000000   0.1443376   0.0000000), wk =   0.0625000
        k(    3) = (   0.0000000   0.2886753   0.0000000), wk =   0.0625000
        k(    4) = (   0.0000000   0.4330129   0.0000000), wk =   0.0625000
        k(    5) = (   0.0000000  -0.5773505   0.0000000), wk =   0.0312500
        k(    6) = (   0.1250000  -0.0734188   0.0000000), wk =   0.0625000
        k(    7) = (   0.1250000   0.0709188   0.0000000), wk =   0.0625000
        k(    8) = (   0.1250000   0.2152565   0.0000000), wk =   0.0625000
        k(    9) = (   0.1250000   0.3595941   0.0000000), wk =   0.0625000
        k(   10) = (   0.1250000  -0.6507694   0.0000000), wk =   0.0625000
        k(   11) = (   0.1250000  -0.5064317   0.0000000), wk =   0.0625000
        k(   12) = (   0.1250000  -0.3620941   0.0000000), wk =   0.0625000
        k(   13) = (   0.1250000  -0.2177565   0.0000000), wk =   0.0625000
        k(   14) = (   0.2500000  -0.1468376   0.0000000), wk =   0.0625000
        k(   15) = (   0.2500000  -0.0025000   0.0000000), wk =   0.0625000
        k(   16) = (   0.2500000   0.1418376   0.0000000), wk =   0.0625000
        k(   17) = (   0.2500000   0.2861753   0.0000000), wk =   0.0625000
        k(   18) = (   0.2500000  -0.7241882   0.0000000), wk =   0.0625000
        k(   19) = (   0.2500000  -0.5798505   0.0000000), wk =   0.0625000
        k(   20) = (   0.2500000  -0.4355129   0.0000000), wk =   0.0625000
        k(   21) = (   0.2500000  -0.2911753   0.0000000), wk =   0.0625000
        k(   22) = (   0.3750000  -0.2202565   0.0000000), wk =   0.0625000
        k(   23) = (   0.3750000  -0.0759188   0.0000000), wk =   0.0625000
        k(   24) = (   0.3750000   0.0684188   0.0000000), wk =   0.0625000
        k(   25) = (   0.3750000   0.2127565   0.0000000), wk =   0.0625000
        k(   26) = (   0.3750000  -0.7976070   0.0000000), wk =   0.0625000
        k(   27) = (   0.3750000  -0.6532694   0.0000000), wk =   0.0625000
        k(   28) = (   0.3750000  -0.5089317   0.0000000), wk =   0.0625000
        k(   29) = (   0.3750000  -0.3645941   0.0000000), wk =   0.0625000
        k(   30) = (  -0.5000000   0.2936753   0.0000000), wk =   0.0312500
        k(   31) = (  -0.5000000   0.4380129   0.0000000), wk =   0.0625000
        k(   32) = (  -0.5000000   0.5823505   0.0000000), wk =   0.0625000
        k(   33) = (  -0.5000000   0.7266882   0.0000000), wk =   0.0625000
        k(   34) = (  -0.5000000  -0.2836753   0.0000000), wk =   0.0312500

     Dense  grid:   132193 G-vectors     FFT dimensions: (  36,  36, 270)

     Smooth grid:    46703 G-vectors     FFT dimensions: (  24,  24, 192)

     Estimated max dynamical RAM per process >      70.89 MB

     Estimated total dynamical RAM >     212.66 MB

     Initial potential from superposition of free atoms

     starting charge    7.99971, renormalised to    8.00000

     negative rho (up, down):  8.795E-05 0.000E+00
     Starting wfcs are    8 randomized atomic wfcs
     Checking if some PAW data can be deallocated... 

     total cpu time spent up to now is        1.6 secs

     Self-consistent Calculation

     iteration #  1     ecut=    60.00 Ry     beta= 0.70
     Davidson diagonalization with overlap
     ethr =  1.00E-02,  avg # of iterations =  7.2

     negative rho (up, down):  1.385E-04 0.000E+00

     total cpu time spent up to now is        3.6 secs

     total energy              =     -39.73325196 Ry
     estimated scf accuracy    <       0.39504265 Ry

     iteration #  2     ecut=    60.00 Ry     beta= 0.70
     Davidson diagonalization with overlap
     ethr =  4.94E-03,  avg # of iterations =  4.7

     negative rho (up, down):  1.335E-04 0.000E+00

     total cpu time spent up to now is        5.2 secs

     total energy              =     -39.82247207 Ry
     estimated scf accuracy    <       0.20387114 Ry

     iteration #  3     ecut=    60.00 Ry     beta= 0.70
     Davidson diagonalization with overlap
     ethr =  2.55E-03,  avg # of iterations =  2.0

     negative rho (up, down):  1.511E-04 0.000E+00

     total cpu time spent up to now is        6.6 secs

     total energy              =     -39.86424495 Ry
     estimated scf accuracy    <       0.00197017 Ry

     iteration #  4     ecut=    60.00 Ry     beta= 0.70
     Davidson diagonalization with overlap
     ethr =  2.46E-05,  avg # of iterations =  9.1

     negative rho (up, down):  1.591E-04 0.000E+00

     total cpu time spent up to now is        9.1 secs

     total energy              =     -39.86465842 Ry
     estimated scf accuracy    <       0.00031835 Ry

     iteration #  5     ecut=    60.00 Ry     beta= 0.70
     Davidson diagonalization with overlap
     ethr =  3.98E-06,  avg # of iterations =  2.4

     negative rho (up, down):  1.645E-04 0.000E+00

     total cpu time spent up to now is       10.7 secs

     total energy              =     -39.86472910 Ry
     estimated scf accuracy    <       0.00001413 Ry

     iteration #  6     ecut=    60.00 Ry     beta= 0.70
     Davidson diagonalization with overlap
     ethr =  1.77E-07,  avg # of iterations =  1.4

     negative rho (up, down):  1.643E-04 0.000E+00

     total cpu time spent up to now is       11.9 secs

     total energy              =     -39.86472965 Ry
     estimated scf accuracy    <       0.00000141 Ry

     iteration #  7     ecut=    60.00 Ry     beta= 0.70
     Davidson diagonalization with overlap
     ethr =  1.76E-08,  avg # of iterations =  2.0

     negative rho (up, down):  1.644E-04 0.000E+00

     total cpu time spent up to now is       13.3 secs

     End of self-consistent calculation

          k = 0.0000 0.0000 0.0000 (  5807 PWs)   bands (ev):

   -21.6911  -9.2782  -5.4581  -5.4124   0.6014   1.4681   1.6823   2.6140

          k = 0.0000 0.1443 0.0000 (  5786 PWs)   bands (ev):

   -21.3949  -8.8796  -6.6193  -5.9750   1.1083   1.9416   2.1788   3.0841

          k = 0.0000 0.2887 0.0000 (  5818 PWs)   bands (ev):

   -20.5490  -9.1738  -7.7312  -7.0390   2.5439   3.2341   3.6589   4.3071

          k = 0.0000 0.4330 0.0000 (  5856 PWs)   bands (ev):

   -19.3638 -11.7166  -7.8958  -6.0717   2.1610   4.6816   5.9975   6.0402

          k = 0.0000-0.5774 0.0000 (  5838 PWs)   bands (ev):

   -18.6405 -12.9358  -8.2099  -4.9825   0.7029   5.5896   8.3403   8.7787

          k = 0.1250-0.0734 0.0000 (  5794 PWs)   bands (ev):

   -21.3919  -8.8757  -6.5882  -6.0087   1.1109   1.9459   2.1829   3.0884

          k = 0.1250 0.0709 0.0000 (  5790 PWs)   bands (ev):

   -21.3979  -8.8835  -6.6533  -5.9385   1.1057   1.9373   2.1748   3.0799

          k = 0.1250 0.2153 0.0000 (  5808 PWs)   bands (ev):

   -20.8306  -8.2355  -8.1153  -7.0282   2.0785   2.8379   3.1562   3.9588

          k = 0.1250 0.3596 0.0000 (  5837 PWs)   bands (ev):

   -19.7949 -10.5019  -8.2884  -6.6876   3.1404   3.9593   5.0954   5.1190

          k = 0.1250-0.6508 0.0000 (  5846 PWs)   bands (ev):

   -18.7097 -12.4256  -8.9532  -5.1033   1.1503   6.3261   7.6760   7.7772

          k = 0.1250-0.5064 0.0000 (  5842 PWs)   bands (ev):

   -18.6936 -12.4550  -8.9357  -5.0799   1.1259   6.3500   7.7017   7.8334

          k = 0.1250-0.3621 0.0000 (  5846 PWs)   bands (ev):

   -19.7703 -10.5576  -8.2462  -6.6547   3.1227   3.9937   5.1332   5.1608

          k = 0.1250-0.2178 0.0000 (  5797 PWs)   bands (ev):

   -20.8134  -8.2466  -8.0928  -7.0244   2.0973   2.8621   3.1811   3.9826

          k = 0.2500-0.1468 0.0000 (  5797 PWs)   bands (ev):

   -20.5370  -9.1336  -7.7155  -7.0991   2.5544   3.2517   3.6752   4.3253

          k = 0.2500-0.0025 0.0000 (  5804 PWs)   bands (ev):

   -20.8220  -8.2439  -8.1040  -7.0234   2.0881   2.8500   3.1688   3.9707

          k = 0.2500 0.1418 0.0000 (  5834 PWs)   bands (ev):

   -20.5609  -9.2149  -7.7467  -6.9779   2.5333   3.2165   3.6429   4.2892

          k = 0.2500 0.2862 0.0000 (  5841 PWs)   bands (ev):

   -19.8044 -10.5400  -8.2309  -6.6998   3.1210   3.9525   5.0829   5.1072

          k = 0.2500-0.7242 0.0000 (  5858 PWs)   bands (ev):

   -18.7824 -11.6316  -9.9447  -5.2243   1.6347   6.2801   7.2428   7.5553

          k = 0.2500-0.5799 0.0000 (  5834 PWs)   bands (ev):

   -18.1850 -12.2412 -10.6286  -4.2793   0.6740   8.5265   8.6441   9.6598

          k = 0.2500-0.4355 0.0000 (  5860 PWs)   bands (ev):

   -18.7367 -11.6816  -9.9429  -5.1603   1.6017   6.3624   7.3355   7.6556

          k = 0.2500-0.2912 0.0000 (  5838 PWs)   bands (ev):

   -19.7608 -10.5205  -8.3028  -6.6422   3.1414   3.9998   5.1457   5.1726

          k = 0.3750-0.2203 0.0000 (  5850 PWs)   bands (ev):

   -19.3374 -11.6849  -7.9740  -6.0365   2.1867   4.6632   6.0342   6.0360

          k = 0.3750-0.0759 0.0000 (  5841 PWs)   bands (ev):

   -19.7732 -10.4929  -8.3236  -6.6586   3.1493   3.9830   5.1269   5.1519

          k = 0.3750 0.0684 0.0000 (  5846 PWs)   bands (ev):

   -19.7922 -10.5681  -8.2095  -6.6833   3.1113   3.9701   5.1018   5.1283

          k = 0.3750 0.2128 0.0000 (  5866 PWs)   bands (ev):

   -19.3903 -11.7477  -7.8181  -6.1065   2.1337   4.6910   5.9619   6.0295

          k = 0.3750-0.7976 0.0000 (  5854 PWs)   bands (ev):

   -18.7356 -12.4535  -8.8821  -5.1380   1.1315   6.3761   7.7368   7.7494

          k = 0.3750-0.6533 0.0000 (  5833 PWs)   bands (ev):

   -18.2022 -12.2527 -10.5946  -4.3045   0.6776   8.5317   8.6631   9.6326

          k = 0.3750-0.5089 0.0000 (  5826 PWs)   bands (ev):

   -18.1679 -12.2295 -10.6628  -4.2535   0.6690   8.5222   8.6142   9.6854

          k = 0.3750-0.3646 0.0000 (  5842 PWs)   bands (ev):

   -18.6678 -12.4265  -9.0074  -5.0444   1.1433   6.2790   7.6488   7.8608

          k =-0.5000 0.2937 0.0000 (  5832 PWs)   bands (ev):

   -18.6028 -12.9146  -8.2941  -4.9299   0.7182   5.4372   8.3995   8.8305

          k =-0.5000 0.4380 0.0000 (  5842 PWs)   bands (ev):

   -18.6759 -12.4117  -9.0162  -5.0561   1.1552   6.2701   7.6346   7.8334

          k =-0.5000 0.5824 0.0000 (  5868 PWs)   bands (ev):

   -18.7597 -11.6576  -9.9428  -5.1922   1.6171   6.3216   7.2897   7.6057

          k =-0.5000 0.7267 0.0000 (  5848 PWs)   bands (ev):

   -18.7276 -12.4681  -8.8734  -5.1263   1.1190   6.3910   7.7489   7.7784

          k =-0.5000-0.2837 0.0000 (  5868 PWs)   bands (ev):

   -18.6786 -12.9560  -8.1266  -5.0342   0.6860   5.7360   8.2832   8.7307

     the Fermi energy is    -2.0740 ev

!    total energy              =     -39.86473003 Ry

     total all-electron energy =      -159.402875 Ry
     estimated scf accuracy    <          7.1E-09 Ry
     smearing contrib. (-TS)   =      -0.00000000 Ry
     internal energy E=F+TS    =     -39.86473003 Ry

     The total energy is F=E-TS. E is the sum of the following terms:
     one-electron contribution =    -220.09642645 Ry
     hartree contribution      =     111.81274581 Ry
     xc contribution           =      -8.80432403 Ry
     ewald contribution        =      90.40355497 Ry
     one-center paw contrib.   =     -13.18028033 Ry

     convergence has been achieved in   7 iterations

     negative rho (up, down):  1.644E-04 0.000E+00

     Forces acting on atoms (cartesian axes, Ry/au):

     atom    1 type  1   force =     0.00465568   -0.00022355    0.00000000
     atom    2 type  2   force =    -0.00465568    0.00022355    0.00000000

     Total force =     0.006592     Total SCF correction =     0.000007


     Computing stress (Cartesian axis) and pressure


     negative rho (up, down):  1.644E-04 0.000E+00
          total   stress  (Ry/bohr**3)                   (kbar)     P=        0.06
   0.00000177  -0.00004142   0.00000000            0.26       -6.09        0.00
  -0.00004142   0.00000208   0.00000000           -6.09        0.31        0.00
   0.00000000   0.00000000  -0.00000256            0.00        0.00       -0.38


     BFGS Geometry Optimization
     Energy error            =      0.0E+00
     Gradient error          =      4.7E-03

     number of scf cycles    =   1
     number of bfgs steps    =   0

     energy   new            =     -39.8647300274 Ry

     new trust radius        =       0.0046610454 bohr
     new conv_thr            =       0.0000000100 Ry


ATOMIC_POSITIONS (angstrom)
B             0.0024636805       -0.0001182980        0.0000000000
N             1.2620935690        0.7259844335        0.0000000000



     Writing output data file /home/aps/Programs/SimuGlue/examples/run_cij_hbn_qe/OUTDIR/hbn/run.c6_eps0.01/hbn.save/
     NEW-OLD atomic charge density approx. for the potential

     negative rho (up, down):  1.644E-04 0.000E+00

     total cpu time spent up to now is       16.9 secs

     Self-consistent Calculation

     iteration #  1     ecut=    60.00 Ry     beta= 0.70
     Davidson diagonalization with overlap
     ethr =  1.00E-06,  avg # of iterations =  3.2

     negative rho (up, down):  1.643E-04 0.000E+00

     total cpu time spent up to now is       18.5 secs

     total energy              =     -39.86473542 Ry
     estimated scf accuracy    <       0.00001114 Ry

     iteration #  2     ecut=    60.00 Ry     beta= 0.70
     Davidson diagonalization with overlap
     ethr =  1.39E-07,  avg # of iterations =  2.0

     negative rho (up, down):  1.643E-04 0.000E+00

     total cpu time spent up to now is       19.8 secs

     total energy              =     -39.86473717 Ry
     estimated scf accuracy    <       0.00000016 Ry

     iteration #  3     ecut=    60.00 Ry     beta= 0.70
     Davidson diagonalization with overlap
     ethr =  1.94E-09,  avg # of iterations =  2.1

     negative rho (up, down):  1.643E-04 0.000E+00

     total cpu time spent up to now is       21.2 secs

     total energy              =     -39.86473722 Ry
     estimated scf accuracy    <       0.00000001 Ry

     iteration #  4     ecut=    60.00 Ry     beta= 0.70
     Davidson diagonalization with overlap
     ethr =  1.72E-10,  avg # of iterations =  2.0

     negative rho (up, down):  1.643E-04 0.000E+00

     total cpu time spent up to now is       22.5 secs

     End of self-consistent calculation

          k = 0.0000 0.0000 0.0000 (  5807 PWs)   bands (ev):

   -21.6912  -9.2783  -5.5145  -5.3559   0.6014   1.4681   1.6822   2.6140

          k = 0.0000 0.1443 0.0000 (  5786 PWs)   bands (ev):

   -21.3950  -8.8796  -6.6259  -5.9682   1.1082   1.9416   2.1788   3.0841

          k = 0.0000 0.2887 0.0000 (  5818 PWs)   bands (ev):

   -20.5490  -9.1750  -7.7311  -7.0375   2.5439   3.2340   3.6589   4.3068

          k = 0.0000 0.4330 0.0000 (  5856 PWs)   bands (ev):

   -19.3638 -11.7171  -7.8948  -6.0713   2.1594   4.6817   5.9974   6.0401

          k = 0.0000-0.5774 0.0000 (  5838 PWs)   bands (ev):

   -18.6406 -12.9362  -8.2089  -4.9816   0.7009   5.5892   8.3397   8.7782

          k = 0.1250-0.0734 0.0000 (  5794 PWs)   bands (ev):

   -21.3916  -8.8763  -6.5501  -6.0507   1.1112   1.9458   2.1829   3.0884

          k = 0.1250 0.0709 0.0000 (  5790 PWs)   bands (ev):

   -21.3983  -8.8830  -6.6919  -5.8957   1.1053   1.9374   2.1747   3.0799

          k = 0.1250 0.2153 0.0000 (  5808 PWs)   bands (ev):

   -20.8318  -8.2635  -8.1136  -6.9946   2.0778   2.8376   3.1561   3.9581

          k = 0.1250 0.3596 0.0000 (  5837 PWs)   bands (ev):

   -19.7965 -10.5076  -8.2789  -6.6846   3.1294   3.9582   5.0945   5.1187

          k = 0.1250-0.6508 0.0000 (  5846 PWs)   bands (ev):

   -18.7107 -12.4258  -8.9513  -5.1003   1.1429   6.3250   7.6801   7.7785

          k = 0.1250-0.5064 0.0000 (  5842 PWs)   bands (ev):

   -18.6925 -12.4555  -8.9363  -5.0815   1.1297   6.3515   7.6966   7.8317

          k = 0.1250-0.3621 0.0000 (  5846 PWs)   bands (ev):

   -19.7687 -10.5534  -8.2538  -6.6572   3.1316   3.9949   5.1335   5.1608

          k = 0.1250-0.2178 0.0000 (  5797 PWs)   bands (ev):

   -20.8123  -8.2215  -8.0944  -7.0548   2.0979   2.8622   3.1811   3.9830

          k = 0.2500-0.1468 0.0000 (  5797 PWs)   bands (ev):

   -20.5353  -9.1097  -7.7182  -7.1327   2.5546   3.2526   3.6752   4.3272

          k = 0.2500-0.0025 0.0000 (  5804 PWs)   bands (ev):

   -20.8219  -8.2468  -8.1040  -7.0205   2.0880   2.8500   3.1687   3.9706

          k = 0.2500 0.1418 0.0000 (  5834 PWs)   bands (ev):

   -20.5625  -9.2378  -7.7440  -6.9455   2.5330   3.2156   3.6428   4.2867

          k = 0.2500 0.2862 0.0000 (  5841 PWs)   bands (ev):

   -19.8073 -10.5577  -8.2037  -6.6943   3.1030   3.9516   5.0808   5.1069

          k = 0.2500-0.7242 0.0000 (  5858 PWs)   bands (ev):

   -18.7853 -11.6404  -9.9301  -5.2169   1.6143   6.2780   7.2457   7.5549

          k = 0.2500-0.5799 0.0000 (  5834 PWs)   bands (ev):

   -18.1847 -12.2415 -10.6286  -4.2786   0.6723   8.5270   8.6445   9.6598

          k = 0.2500-0.4355 0.0000 (  5860 PWs)   bands (ev):

   -18.7334 -11.6736  -9.9573  -5.1672   1.6198   6.3645   7.3323   7.6557

          k = 0.2500-0.2912 0.0000 (  5838 PWs)   bands (ev):

   -19.7577 -10.5023  -8.3308  -6.6477   3.1585   4.0006   5.1474   5.1726

          k = 0.3750-0.2203 0.0000 (  5850 PWs)   bands (ev):

   -19.3331 -11.6717  -8.0017  -6.0448   2.2089   4.6611   6.0336   6.0350

          k = 0.3750-0.0759 0.0000 (  5841 PWs)   bands (ev):

   -19.7715 -10.4804  -8.3425  -6.6614   3.1571   3.9827   5.1281   5.1518

          k = 0.3750 0.0684 0.0000 (  5846 PWs)   bands (ev):

   -19.7933 -10.5815  -8.1904  -6.6807   3.1037   3.9703   5.1004   5.1282

          k = 0.3750 0.2128 0.0000 (  5866 PWs)   bands (ev):

   -19.3939 -11.7609  -7.7913  -6.0983   2.1116   4.6921   5.9606   6.0302

          k = 0.3750-0.7976 0.0000 (  5854 PWs)   bands (ev):

   -18.7402 -12.4636  -8.8601  -5.1253   1.1025   6.3785   7.7435   7.7506

          k = 0.3750-0.6533 0.0000 (  5833 PWs)   bands (ev):

   -18.2043 -12.2616 -10.5814  -4.2964   0.6606   8.5398   8.6645   9.6324

          k = 0.3750-0.5089 0.0000 (  5826 PWs)   bands (ev):

   -18.1648 -12.2211 -10.6770  -4.2612   0.6847   8.5135   8.6114   9.6852

          k = 0.3750-0.3646 0.0000 (  5842 PWs)   bands (ev):

   -18.6624 -12.4167  -9.0304  -5.0572   1.1721   6.2738   7.6422   7.8591

          k =-0.5000 0.2937 0.0000 (  5832 PWs)   bands (ev):

   -18.5965 -12.9060  -8.3201  -4.9460   0.7507   5.4289   8.4027   8.8298

          k =-0.5000 0.4380 0.0000 (  5842 PWs)   bands (ev):

   -18.6715 -12.4019  -9.0378  -5.0667   1.1787   6.2641   7.6320   7.8331

          k =-0.5000 0.5824 0.0000 (  5868 PWs)   bands (ev):

   -18.7592 -11.6588  -9.9422  -5.1922   1.6170   6.3216   7.2894   7.6056

          k =-0.5000 0.7267 0.0000 (  5848 PWs)   bands (ev):

   -18.7311 -12.4785  -8.8526  -5.1160   1.0958   6.3951   7.7511   7.7777

          k =-0.5000-0.2837 0.0000 (  5868 PWs)   bands (ev):

   -18.6838 -12.9653  -8.1016  -5.0185   0.6542   5.7429   8.2796   8.7308

     the Fermi energy is    -2.0742 ev

!    total energy              =     -39.86473722 Ry

     total all-electron energy =      -159.402883 Ry
     estimated scf accuracy    <          2.7E-09 Ry
     smearing contrib. (-TS)   =      -0.00000000 Ry
     internal energy E=F+TS    =     -39.86473722 Ry

     The total energy is F=E-TS. E is the sum of the following terms:
     one-electron contribution =    -220.09546041 Ry
     hartree contribution      =     111.81223379 Ry
     xc contribution           =      -8.80421821 Ry
     ewald contribution        =      90.40297890 Ry
     one-center paw contrib.   =     -13.18027129 Ry

     convergence has been achieved in   4 iterations

     negative rho (up, down):  1.643E-04 0.000E+00

     Forces acting on atoms (cartesian axes, Ry/au):

     atom    1 type  1   force =    -0.00310936    0.00023566    0.00000000
     atom    2 type  2   force =     0.00310936   -0.00023566    0.00000000

     Total force =     0.004410     Total SCF correction =     0.000012


     Computing stress (Cartesian axis) and pressure


     negative rho (up, down):  1.643E-04 0.000E+00
          total   stress  (Ry/bohr**3)                   (kbar)     P=        0.02
   0.00000094  -0.00003557   0.00000000            0.14       -5.23        0.00
  -0.00003557   0.00000209   0.00000000           -5.23        0.31        0.00
   0.00000000   0.00000000  -0.00000262            0.00        0.00       -0.39

     Energy error            =      7.2E-06
     Gradient error          =      3.1E-03

     number of scf cycles    =   2
     number of bfgs steps    =   1

     energy   old            =     -39.8647300274 Ry
     energy   new            =     -39.8647372182 Ry

     CASE: energy  _new < energy  _old

     new trust radius        =       0.0018680539 bohr
     new conv_thr            =            1.0E-10 Ry


ATOMIC_POSITIONS (angstrom)
B             0.0014779766       -0.0000435828        0.0000000000
N             1.2630792730        0.7259097183        0.0000000000



     Writing output data file /home/aps/Programs/SimuGlue/examples/run_cij_hbn_qe/OUTDIR/hbn/run.c6_eps0.01/hbn.save/
     NEW-OLD atomic charge density approx. for the potential

     negative rho (up, down):  1.643E-04 0.000E+00

     total cpu time spent up to now is       26.2 secs

     Self-consistent Calculation

     iteration #  1     ecut=    60.00 Ry     beta= 0.70
     Davidson diagonalization with overlap
     ethr =  1.00E-06,  avg # of iterations =  2.0

     Threshold (ethr) on eigenvalues was too large:
     Diagonalizing with lowered threshold

     Davidson diagonalization with overlap
     ethr =  1.90E-08,  avg # of iterations =  2.2

     negative rho (up, down):  1.643E-04 0.000E+00

     total cpu time spent up to now is       29.0 secs

     total energy              =     -39.86474278 Ry
     estimated scf accuracy    <       0.00000181 Ry

     iteration #  2     ecut=    60.00 Ry     beta= 0.70
     Davidson diagonalization with overlap
     ethr =  2.27E-08,  avg # of iterations =  2.0

     negative rho (up, down):  1.644E-04 0.000E+00

     total cpu time spent up to now is       30.4 secs

     total energy              =     -39.86474305 Ry
     estimated scf accuracy    <       0.00000003 Ry

     iteration #  3     ecut=    60.00 Ry     beta= 0.70
     Davidson diagonalization with overlap
     ethr =  3.44E-10,  avg # of iterations =  2.0

     negative rho (up, down):  1.643E-04 0.000E+00

     total cpu time spent up to now is       31.8 secs

     total energy              =     -39.86474305 Ry
     estimated scf accuracy    <          3.9E-09 Ry

     iteration #  4     ecut=    60.00 Ry     beta= 0.70
     Davidson diagonalization with overlap
     ethr =  4.89E-11,  avg # of iterations =  2.0

     negative rho (up, down):  1.644E-04 0.000E+00

     total cpu time spent up to now is       33.3 secs

     total energy              =     -39.86474305 Ry
     estimated scf accuracy    <          9.5E-10 Ry

     iteration #  5     ecut=    60.00 Ry     beta= 0.70
     Davidson diagonalization with overlap
     ethr =  1.19E-11,  avg # of iterations =  2.0

     negative rho (up, down):  1.644E-04 0.000E+00

     total cpu time spent up to now is       34.6 secs

     End of self-consistent calculation

          k = 0.0000 0.0000 0.0000 (  5807 PWs)   bands (ev):

   -21.6910  -9.2782  -5.4917  -5.3783   0.6014   1.4681   1.6822   2.6140

          k = 0.0000 0.1443 0.0000 (  5786 PWs)   bands (ev):

   -21.3948  -8.8795  -6.6217  -5.9723   1.1082   1.9416   2.1788   3.0841

          k = 0.0000 0.2887 0.0000 (  5818 PWs)   bands (ev):

   -20.5488  -9.1739  -7.7310  -7.0386   2.5439   3.2341   3.6589   4.3069

          k = 0.0000 0.4330 0.0000 (  5856 PWs)   bands (ev):

   -19.3635 -11.7165  -7.8955  -6.0714   2.1604   4.6817   5.9974   6.0401

          k = 0.0000-0.5774 0.0000 (  5838 PWs)   bands (ev):

   -18.6403 -12.9359  -8.2096  -4.9820   0.7021   5.5895   8.3399   8.7782

          k = 0.1250-0.0734 0.0000 (  5794 PWs)   bands (ev):

   -21.3916  -8.8759  -6.5651  -6.0337   1.1111   1.9458   2.1829   3.0884

          k = 0.1250 0.0709 0.0000 (  5790 PWs)   bands (ev):

   -21.3980  -8.8831  -6.6763  -5.9126   1.1055   1.9374   2.1747   3.0799

          k = 0.1250 0.2153 0.0000 (  5808 PWs)   bands (ev):

   -20.8311  -8.2518  -8.1141  -7.0082   2.0781   2.8377   3.1561   3.9584

          k = 0.1250 0.3596 0.0000 (  5837 PWs)   bands (ev):

   -19.7957 -10.5049  -8.2830  -6.6857   3.1340   3.9587   5.0948   5.1188

          k = 0.1250-0.6508 0.0000 (  5846 PWs)   bands (ev):

   -18.7100 -12.4255  -8.9523  -5.1014   1.1462   6.3255   7.6785   7.7776

          k = 0.1250-0.5064 0.0000 (  5842 PWs)   bands (ev):

   -18.6927 -12.4550  -8.9363  -5.0808   1.1285   6.3510   7.6987   7.8323

          k = 0.1250-0.3621 0.0000 (  5846 PWs)   bands (ev):

   -19.7691 -10.5547  -8.2511  -6.6561   3.1283   3.9944   5.1333   5.1608

          k = 0.1250-0.2178 0.0000 (  5797 PWs)   bands (ev):

   -20.8126  -8.2310  -8.0936  -7.0429   2.0977   2.8622   3.1811   3.9828

          k = 0.2500-0.1468 0.0000 (  5797 PWs)   bands (ev):

   -20.5358  -9.1192  -7.7170  -7.1189   2.5545   3.2522   3.6752   4.3262

          k = 0.2500-0.0025 0.0000 (  5804 PWs)   bands (ev):

   -20.8218  -8.2456  -8.1038  -7.0213   2.0880   2.8500   3.1687   3.9706

          k = 0.2500 0.1418 0.0000 (  5834 PWs)   bands (ev):

   -20.5617  -9.2286  -7.7449  -6.9581   2.5331   3.2160   3.6428   4.2876

          k = 0.2500 0.2862 0.0000 (  5841 PWs)   bands (ev):

   -19.8060 -10.5505  -8.2144  -6.6964   3.1103   3.9520   5.0815   5.1070

          k = 0.2500-0.7242 0.0000 (  5858 PWs)   bands (ev):

   -18.7839 -11.6367  -9.9360  -5.2197   1.6226   6.2789   7.2445   7.5549

          k = 0.2500-0.5799 0.0000 (  5834 PWs)   bands (ev):

   -18.1846 -12.2411 -10.6288  -4.2787   0.6731   8.5267   8.6446   9.6598

          k = 0.2500-0.4355 0.0000 (  5860 PWs)   bands (ev):

   -18.7345 -11.6766  -9.9516  -5.1643   1.6127   6.3637   7.3335   7.6555

          k = 0.2500-0.2912 0.0000 (  5838 PWs)   bands (ev):

   -19.7588 -10.5095  -8.3194  -6.6453   3.1518   4.0003   5.1467   5.1726

          k = 0.3750-0.2203 0.0000 (  5850 PWs)   bands (ev):

   -19.3347 -11.6769  -7.9903  -6.0412   2.1999   4.6620   6.0345   6.0346

          k = 0.3750-0.0759 0.0000 (  5841 PWs)   bands (ev):

   -19.7721 -10.4854  -8.3346  -6.6600   3.1539   3.9828   5.1275   5.1518

          k = 0.3750 0.0684 0.0000 (  5846 PWs)   bands (ev):

   -19.7927 -10.5761  -8.1977  -6.6815   3.1066   3.9702   5.1009   5.1282

          k = 0.3750 0.2128 0.0000 (  5866 PWs)   bands (ev):

   -19.3923 -11.7556  -7.8017  -6.1013   2.1203   4.6917   5.9609   6.0299

          k = 0.3750-0.7976 0.0000 (  5854 PWs)   bands (ev):

   -18.7382 -12.4596  -8.8686  -5.1302   1.1140   6.3777   7.7405   7.7500

          k = 0.3750-0.6533 0.0000 (  5833 PWs)   bands (ev):

   -18.2032 -12.2580 -10.5865  -4.2993   0.6672   8.5366   8.6641   9.6325

          k = 0.3750-0.5089 0.0000 (  5826 PWs)   bands (ev):

   -18.1658 -12.2244 -10.6711  -4.2578   0.6782   8.5170   8.6127   9.6853

          k = 0.3750-0.3646 0.0000 (  5842 PWs)   bands (ev):

   -18.6644 -12.4206  -9.0209  -5.0518   1.1604   6.2760   7.6449   7.8597

          k =-0.5000 0.2937 0.0000 (  5832 PWs)   bands (ev):

   -18.5988 -12.9094  -8.3094  -4.9392   0.7374   5.4324   8.4013   8.8298

          k =-0.5000 0.4380 0.0000 (  5842 PWs)   bands (ev):

   -18.6731 -12.4058  -9.0289  -5.0621   1.1690   6.2666   7.6331   7.8328

          k =-0.5000 0.5824 0.0000 (  5868 PWs)   bands (ev):

   -18.7592 -11.6583  -9.9422  -5.1919   1.6168   6.3216   7.2896   7.6056

          k =-0.5000 0.7267 0.0000 (  5848 PWs)   bands (ev):

   -18.7295 -12.4743  -8.8606  -5.1198   1.1049   6.3936   7.7503   7.7779

          k =-0.5000-0.2837 0.0000 (  5868 PWs)   bands (ev):

   -18.6815 -12.9616  -8.1113  -5.0245   0.6667   5.7402   8.2810   8.7306

     the Fermi energy is    -2.0740 ev

!    total energy              =     -39.86474305 Ry

     total all-electron energy =      -159.402888 Ry
     estimated scf accuracy    <          6.0E-12 Ry
     smearing contrib. (-TS)   =      -0.00000000 Ry
     internal energy E=F+TS    =     -39.86474305 Ry

     The total energy is F=E-TS. E is the sum of the following terms:
     one-electron contribution =    -220.09563459 Ry
     hartree contribution      =     111.81221143 Ry
     xc contribution           =      -8.80422336 Ry
     ewald contribution        =      90.40317567 Ry
     one-center paw contrib.   =     -13.18027220 Ry

     convergence has been achieved in   5 iterations

     negative rho (up, down):  1.644E-04 0.000E+00

     Forces acting on atoms (cartesian axes, Ry/au):

     atom    1 type  1   force =    -0.00000481   -0.00001954    0.00000000
     atom    2 type  2   force =     0.00000481    0.00001954    0.00000000

     Total force =     0.000028     Total SCF correction =     0.000004
     SCF correction compared to forces is large: reduce conv_thr to get better values


     Computing stress (Cartesian axis) and pressure


     negative rho (up, down):  1.644E-04 0.000E+00
          total   stress  (Ry/bohr**3)                   (kbar)     P=        0.02
   0.00000121  -0.00003791   0.00000000            0.18       -5.58        0.00
  -0.00003791   0.00000191   0.00000000           -5.58        0.28        0.00
   0.00000000   0.00000000  -0.00000278            0.00        0.00       -0.41

     Energy error            =      5.8E-06
     Gradient error          =      2.0E-05

     bfgs converged in   3 scf cycles and   2 bfgs steps
     (criteria: energy <  1.0E-04 Ry, force <  1.0E-03 Ry/Bohr)

     End of BFGS Geometry Optimization

     Final energy   =     -39.8647430541 Ry

     File /home/aps/Programs/SimuGlue/examples/run_cij_hbn_qe/OUTDIR/hbn/run.c6_eps0.01/hbn.bfgs deleted, as requested
Begin final coordinates

ATOMIC_POSITIONS (angstrom)
B             0.0014779766       -0.0000435828        0.0000000000
N             1.2630792730        0.7259097183        0.0000000000
End final coordinates



     Writing output data file /home/aps/Programs/SimuGlue/examples/run_cij_hbn_qe/OUTDIR/hbn/run.c6_eps0.01/hbn.save/

     init_run     :      1.46s CPU      1.49s WALL (       1 calls)
     electrons    :     25.31s CPU     25.73s WALL (       3 calls)
     update_pot   :      1.85s CPU      1.85s WALL (       2 calls)
     forces       :      2.42s CPU      2.44s WALL (       3 calls)
     stress       :      5.33s CPU      5.33s WALL (       3 calls)

     Called by init_run:
     wfcinit      :      0.37s CPU      0.39s WALL (       1 calls)
     potinit      :      0.37s CPU      0.38s WALL (       1 calls)
     hinit0       :      0.64s CPU      0.64s WALL (       1 calls)

     Called by electrons:
     c_bands      :     19.41s CPU     19.72s WALL (      17 calls)
     sum_band     :      3.80s CPU      3.88s WALL (      17 calls)
     v_of_rho     :      0.95s CPU      0.98s WALL (      19 calls)
     newd         :      0.77s CPU      0.78s WALL (      19 calls)
     PAW_pot      :      0.52s CPU      0.53s WALL (      21 calls)
     mix_rho      :      0.11s CPU      0.11s WALL (      17 calls)

     Called by c_bands:
     init_us_2    :      0.47s CPU      0.48s WALL (    1462 calls)
     cegterg      :     18.66s CPU     18.96s WALL (     578 calls)

     Called by *egterg:
     cdiaghg      :      0.19s CPU      0.19s WALL (    2187 calls)
     h_psi        :     13.96s CPU     14.20s WALL (    2323 calls)
     s_psi        :      0.61s CPU      0.63s WALL (    2323 calls)
     g_psi        :      0.11s CPU      0.12s WALL (    1711 calls)

     Called by h_psi:
     h_psi:calbec :      1.02s CPU      1.04s WALL (    2323 calls)
     vloc_psi     :     12.26s CPU     12.46s WALL (    2323 calls)
     add_vuspsi   :      0.63s CPU      0.65s WALL (    2323 calls)

     General routines
     calbec       :      1.89s CPU      1.93s WALL (    3479 calls)
     fft          :      0.91s CPU      0.93s WALL (     319 calls)
     ffts         :      0.03s CPU      0.03s WALL (      36 calls)
     fftw         :     13.32s CPU     13.55s WALL (   29652 calls)
     interpolate  :      0.09s CPU      0.09s WALL (      19 calls)

     Parallel routines
     fft_scatt_xy :      1.30s CPU      1.32s WALL (   30007 calls)
     fft_scatt_yz :      6.45s CPU      6.56s WALL (   30007 calls)

     PWSCF        :     36.69s CPU     37.21s WALL


   This run was terminated on:  13: 0: 4  12Nov2025            

=------------------------------------------------------------------------------=
   JOB DONE.
=------------------------------------------------------------------------------=
