# cwd: o.res_pa_m/run.c1_eps-0.01
# cmd: mpirun -np 3 pw.x -in qe.in


     Program PWSCF v.6.7MaX starts on 12Nov2025 at 13: 0: 4 

     This program is part of the open-source Quantum ESPRESSO suite
     for quantum simulation of materials; please cite
         "P. Giannozzi et al., J. Phys.:Condens. Matter 21 395502 (2009);
         "P. Giannozzi et al., J. Phys.:Condens. Matter 29 465901 (2017);
          URL http://www.quantum-espresso.org", 
     in publications or presentations arising from this work. More details at
     http://www.quantum-espresso.org/quote

     Parallel version (MPI), running on     3 processors

     MPI processes distributed on     1 nodes
     R & G space division:  proc/nbgrp/npool/nimage =       3
     Reading input from qe.in

     Current dimensions of program PWSCF are:
     Max number of different atomic species (ntypx) = 10
     Max number of k-points (npk) =  40000
     Max angular momentum in pseudopotentials (lmaxx) =  3
     file N.pbe-n-kjpaw_psl.1.0.0.UPF: wavefunction(s)  2S renormalized

     Subspace diagonalization in iterative solution of the eigenvalue problem:
     a serial algorithm will be used

     Message from routine setup:
     using ibrav=0 with symmetry is DISCOURAGED, use correct ibrav instead

     Parallelization info
     --------------------
     sticks:   dense  smooth     PW     G-vecs:    dense   smooth      PW
     Min         248     122     40                43674    15406    2942
     Max         249     123     41                43693    15427    2971
     Sum         745     367    121               131041    46241    8859



     bravais-lattice index     =            0
     lattice parameter (alat)  =       4.7044  a.u.
     unit-cell volume          =     735.9655 (a.u.)^3
     number of atoms/cell      =            2
     number of atomic types    =            2
     number of electrons       =         8.00
     number of Kohn-Sham states=            8
     kinetic-energy cutoff     =      60.0000  Ry
     charge density cutoff     =     480.0000  Ry
     scf convergence threshold =      1.0E-08
     mixing beta               =       0.7000
     number of iterations used =            8  plain     mixing
     energy convergence thresh.=      1.0E-04
     force convergence thresh. =      1.0E-03
     Exchange-correlation= SLA  PW   PBX  PBC
                           (   1   4   3   4   0   0   0)
     nstep                     =           50


     celldm(1)=   4.704381  celldm(2)=   0.000000  celldm(3)=   0.000000
     celldm(4)=   0.000000  celldm(5)=   0.000000  celldm(6)=   0.000000

     crystal axes: (cart. coord. in units of alat)
               a(1) = (   1.000000   0.000000   0.000000 )  
               a(2) = (   0.500000   0.874773   0.000000 )  
               a(3) = (   0.000000   0.000000   8.080808 )  

     reciprocal axes: (cart. coord. in units 2 pi/alat)
               b(1) = (  1.000000 -0.571577  0.000000 )  
               b(2) = (  0.000000  1.143154  0.000000 )  
               b(3) = (  0.000000  0.000000  0.123750 )  


     PseudoPot. # 1 for B  read from file:
     ../../PSEUDO/B.pbe-n-kjpaw_psl.1.0.0.UPF
     MD5 check sum: cdf8f75bef5223b293e087bc2c755083
     Pseudo is Projector augmented-wave + core cor, Zval =  3.0
     Generated using 'atomic' code by A. Dal Corso  v.7.0
     Shape of augmentation charge: PSQ
     Using radial grid of 1059 points,  4 beta functions with: 
                l(1) =   0
                l(2) =   0
                l(3) =   1
                l(4) =   1
     Q(r) pseudized with 0 coefficients 


     PseudoPot. # 2 for N  read from file:
     ../../PSEUDO/N.pbe-n-kjpaw_psl.1.0.0.UPF
     MD5 check sum: 0fbee1c51453e7d4733b1acc8ff6f686
     Pseudo is Projector augmented-wave + core cor, Zval =  5.0
     Generated using 'atomic' code by A. Dal Corso  v.7.0
     Shape of augmentation charge: PSQ
     Using radial grid of 1085 points,  4 beta functions with: 
                l(1) =   0
                l(2) =   0
                l(3) =   1
                l(4) =   1
     Q(r) pseudized with 0 coefficients 


     atomic species   valence    mass     pseudopotential
        B              3.00    10.81000     B ( 1.00)
        N              5.00    14.01000     N ( 1.00)

      4 Sym. Ops. (no inversion) found



   Cartesian axes

     site n.     atom                  positions (alat units)
         1           B   tau(   1) = (   0.0000000   0.0000000   0.0000000  )
         2           N   tau(   2) = (   0.5000000   0.2915768   0.0000000  )

     number of k points=    21  Gaussian smearing, width (Ry)=  0.0010
                       cart. coord. in units 2pi/alat
        k(    1) = (   0.0000000   0.0000000   0.0000000), wk =   0.0312500
        k(    2) = (   0.0000000   0.1428943   0.0000000), wk =   0.0625000
        k(    3) = (   0.0000000   0.2857885   0.0000000), wk =   0.0625000
        k(    4) = (   0.0000000   0.4286828   0.0000000), wk =   0.0625000
        k(    5) = (   0.0000000  -0.5715770   0.0000000), wk =   0.0312500
        k(    6) = (   0.1250000  -0.0714471   0.0000000), wk =   0.1250000
        k(    7) = (   0.1250000   0.2143414   0.0000000), wk =   0.1250000
        k(    8) = (   0.1250000   0.3572356   0.0000000), wk =   0.1250000
        k(    9) = (   0.1250000  -0.6430242   0.0000000), wk =   0.1250000
        k(   10) = (   0.2500000  -0.1428943   0.0000000), wk =   0.1250000
        k(   11) = (   0.2500000   0.0000000   0.0000000), wk =   0.0625000
        k(   12) = (   0.2500000   0.2857885   0.0000000), wk =   0.1250000
        k(   13) = (   0.2500000  -0.7144713   0.0000000), wk =   0.1250000
        k(   14) = (   0.2500000  -0.5715770   0.0000000), wk =   0.0625000
        k(   15) = (   0.3750000  -0.2143414   0.0000000), wk =   0.1250000
        k(   16) = (   0.3750000  -0.0714471   0.0000000), wk =   0.1250000
        k(   17) = (   0.3750000  -0.7859184   0.0000000), wk =   0.1250000
        k(   18) = (   0.3750000  -0.6430242   0.0000000), wk =   0.1250000
        k(   19) = (  -0.5000000   0.2857885   0.0000000), wk =   0.0625000
        k(   20) = (  -0.5000000   0.4286828   0.0000000), wk =   0.1250000
        k(   21) = (  -0.5000000   0.5715770   0.0000000), wk =   0.0625000

     Dense  grid:   131041 G-vectors     FFT dimensions: (  36,  36, 270)

     Smooth grid:    46241 G-vectors     FFT dimensions: (  24,  24, 192)

     Estimated max dynamical RAM per process >      67.27 MB

     Estimated total dynamical RAM >     201.82 MB

     Initial potential from superposition of free atoms

     starting charge    7.99971, renormalised to    8.00000

     negative rho (up, down):  8.754E-05 0.000E+00
     Starting wfcs are    8 randomized atomic wfcs
     Checking if some PAW data can be deallocated... 

     total cpu time spent up to now is        1.2 secs

     Self-consistent Calculation

     iteration #  1     ecut=    60.00 Ry     beta= 0.70
     Davidson diagonalization with overlap
     ethr =  1.00E-02,  avg # of iterations =  7.4

     negative rho (up, down):  1.385E-04 0.000E+00

     total cpu time spent up to now is        2.6 secs

     total energy              =     -39.73197830 Ry
     estimated scf accuracy    <       0.40211116 Ry

     iteration #  2     ecut=    60.00 Ry     beta= 0.70
     Davidson diagonalization with overlap
     ethr =  5.03E-03,  avg # of iterations =  4.5

     negative rho (up, down):  1.339E-04 0.000E+00

     total cpu time spent up to now is        3.6 secs

     total energy              =     -39.82315169 Ry
     estimated scf accuracy    <       0.19891850 Ry

     iteration #  3     ecut=    60.00 Ry     beta= 0.70
     Davidson diagonalization with overlap
     ethr =  2.49E-03,  avg # of iterations =  2.0

     negative rho (up, down):  1.517E-04 0.000E+00

     total cpu time spent up to now is        4.5 secs

     total energy              =     -39.86398135 Ry
     estimated scf accuracy    <       0.00196375 Ry

     iteration #  4     ecut=    60.00 Ry     beta= 0.70
     Davidson diagonalization with overlap
     ethr =  2.45E-05,  avg # of iterations =  9.1

     negative rho (up, down):  1.625E-04 0.000E+00

     total cpu time spent up to now is        5.9 secs

     total energy              =     -39.86439417 Ry
     estimated scf accuracy    <       0.00031636 Ry

     iteration #  5     ecut=    60.00 Ry     beta= 0.70
     Davidson diagonalization with overlap
     ethr =  3.95E-06,  avg # of iterations =  2.9

     negative rho (up, down):  1.680E-04 0.000E+00

     total cpu time spent up to now is        6.9 secs

     total energy              =     -39.86446516 Ry
     estimated scf accuracy    <       0.00001510 Ry

     iteration #  6     ecut=    60.00 Ry     beta= 0.70
     Davidson diagonalization with overlap
     ethr =  1.89E-07,  avg # of iterations =  1.2

     negative rho (up, down):  1.678E-04 0.000E+00

     total cpu time spent up to now is        7.6 secs

     total energy              =     -39.86446573 Ry
     estimated scf accuracy    <       0.00000138 Ry

     iteration #  7     ecut=    60.00 Ry     beta= 0.70
     Davidson diagonalization with overlap
     ethr =  1.72E-08,  avg # of iterations =  2.1

     negative rho (up, down):  1.678E-04 0.000E+00

     total cpu time spent up to now is        8.5 secs

     total energy              =     -39.86446614 Ry
     estimated scf accuracy    <       0.00000002 Ry

     iteration #  8     ecut=    60.00 Ry     beta= 0.70
     Davidson diagonalization with overlap
     ethr =  1.95E-10,  avg # of iterations =  2.3

     negative rho (up, down):  1.679E-04 0.000E+00

     total cpu time spent up to now is        9.4 secs

     End of self-consistent calculation

          k = 0.0000 0.0000 0.0000 (  5735 PWs)   bands (ev):

   -21.7487  -9.3241  -5.4101  -5.3614   0.6183   1.4798   1.6934   2.6254

          k = 0.0000 0.1429 0.0000 (  5738 PWs)   bands (ev):

   -21.4526  -8.9249  -6.6178  -5.8911   1.1257   1.9540   2.1899   3.0964

          k = 0.0000 0.2858 0.0000 (  5772 PWs)   bands (ev):

   -20.6069  -9.2032  -7.7749  -6.9418   2.5668   3.2565   3.6710   4.3355

          k = 0.0000 0.4287 0.0000 (  5822 PWs)   bands (ev):

   -19.4215 -11.7630  -7.7910  -6.1142   2.2167   4.7713   6.0134   6.0933

          k = 0.0000-0.5716 0.0000 (  5768 PWs)   bands (ev):

   -18.6977 -12.9878  -8.1027  -5.0264   0.7455   5.9413   8.3680   8.8207

          k = 0.1250-0.0714 0.0000 (  5743 PWs)   bands (ev):

   -21.4474  -8.9180  -6.5592  -5.9542   1.1304   1.9615   2.1971   3.1042

          k = 0.1250 0.2143 0.0000 (  5746 PWs)   bands (ev):

   -20.8744  -8.2108  -8.1411  -6.9990   2.1119   2.8738   3.1872   3.9970

          k = 0.1250 0.3572 0.0000 (  5793 PWs)   bands (ev):

   -19.8343 -10.5547  -8.1989  -6.7059   3.2147   4.0093   5.1410   5.1598

          k = 0.1250-0.6430 0.0000 (  5796 PWs)   bands (ev):

   -18.7511 -12.4880  -8.8598  -5.1251   1.1966   6.5076   7.8348   7.8836

          k = 0.2500-0.1429 0.0000 (  5760 PWs)   bands (ev):

   -20.5858  -9.1307  -7.7474  -7.0495   2.5864   3.2876   3.6996   4.3674

          k = 0.2500 0.0000 0.0000 (  5760 PWs)   bands (ev):

   -20.8593  -8.2181  -8.1212  -6.9982   2.1287   2.8953   3.2091   4.0179

          k = 0.2500 0.2858 0.0000 (  5776 PWs)   bands (ev):

   -19.8176 -10.4874  -8.3003  -6.6840   3.2491   4.0219   5.1631   5.1809

          k = 0.2500-0.7145 0.0000 (  5802 PWs)   bands (ev):

   -18.7888 -11.6605  -9.9419  -5.1990   1.7147   6.3747   7.3352   7.6475

          k = 0.2500-0.5716 0.0000 (  5764 PWs)   bands (ev):

   -18.2080 -12.2906 -10.5878  -4.2806   0.7494   8.6192   8.8128   9.7396

          k = 0.3750-0.2143 0.0000 (  5798 PWs)   bands (ev):

   -19.3748 -11.7074  -7.9286  -6.0522   2.2650   4.7613   6.0775   6.1208

          k = 0.3750-0.0714 0.0000 (  5780 PWs)   bands (ev):

   -19.7958 -10.5364  -8.2634  -6.6549   3.2344   4.0525   5.1962   5.2178

          k = 0.3750-0.7859 0.0000 (  5787 PWs)   bands (ev):

   -18.7054 -12.4380  -8.9860  -5.0629   1.2296   6.4269   7.7780   7.8830

          k = 0.3750-0.6430 0.0000 (  5754 PWs)   bands (ev):

   -18.1775 -12.2704 -10.6479  -4.2354   0.7424   8.6099   8.7847   9.7894

          k =-0.5000 0.2858 0.0000 (  5796 PWs)   bands (ev):

   -18.6307 -12.9514  -8.2505  -4.9340   0.7748   5.6841   8.4694   8.9039

          k =-0.5000 0.4287 0.0000 (  5771 PWs)   bands (ev):

   -18.6910 -12.4641  -8.9705  -5.0421   1.2080   6.4479   7.8005   7.9331

          k =-0.5000 0.5716 0.0000 (  5810 PWs)   bands (ev):

   -18.7482 -11.7032  -9.9420  -5.1421   1.6861   6.4484   7.4166   7.7359

     the Fermi energy is    -2.0306 ev

!    total energy              =     -39.86446614 Ry

     total all-electron energy =      -159.402612 Ry
     estimated scf accuracy    <          2.4E-09 Ry
     smearing contrib. (-TS)   =      -0.00000000 Ry
     internal energy E=F+TS    =     -39.86446614 Ry

     The total energy is F=E-TS. E is the sum of the following terms:
     one-electron contribution =    -222.30740767 Ry
     hartree contribution      =     112.93032624 Ry
     xc contribution           =      -8.82551783 Ry
     ewald contribution        =      91.51866662 Ry
     one-center paw contrib.   =     -13.18053351 Ry

     convergence has been achieved in   8 iterations

     negative rho (up, down):  1.679E-04 0.000E+00

     Forces acting on atoms (cartesian axes, Ry/au):

     atom    1 type  1   force =     0.00000000   -0.00508771    0.00000000
     atom    2 type  2   force =     0.00000000    0.00508771    0.00000000

     Total force =     0.007195     Total SCF correction =     0.000002


     Computing stress (Cartesian axis) and pressure


     negative rho (up, down):  1.679E-04 0.000E+00
          total   stress  (Ry/bohr**3)                   (kbar)     P=        6.11
   0.00010646   0.00000000   0.00000000           15.66        0.00        0.00
   0.00000000   0.00002084  -0.00000000            0.00        3.07       -0.00
   0.00000000   0.00000000  -0.00000278            0.00        0.00       -0.41


     BFGS Geometry Optimization
     Energy error            =      0.0E+00
     Gradient error          =      5.1E-03

     number of scf cycles    =   1
     number of bfgs steps    =   0

     energy   new            =     -39.8644661389 Ry

     new trust radius        =       0.0050877077 bohr
     new conv_thr            =       0.0000000100 Ry


ATOMIC_POSITIONS (angstrom)
B             0.0000000000       -0.0026922990        0.0000000000
N             1.2447256023        0.7285584345        0.0000000000



     Writing output data file /home/aps/Programs/SimuGlue/examples/run_cij_hbn_qe/OUTDIR/hbn/run.c1_eps-0.01/hbn.save/
     NEW-OLD atomic charge density approx. for the potential

     negative rho (up, down):  1.679E-04 0.000E+00

     total cpu time spent up to now is       12.3 secs

     Self-consistent Calculation

     iteration #  1     ecut=    60.00 Ry     beta= 0.70
     Davidson diagonalization with overlap
     ethr =  1.00E-06,  avg # of iterations =  3.2

     negative rho (up, down):  1.678E-04 0.000E+00

     total cpu time spent up to now is       13.4 secs

     total energy              =     -39.86447128 Ry
     estimated scf accuracy    <       0.00001365 Ry

     iteration #  2     ecut=    60.00 Ry     beta= 0.70
     Davidson diagonalization with overlap
     ethr =  1.71E-07,  avg # of iterations =  2.0

     negative rho (up, down):  1.679E-04 0.000E+00

     total cpu time spent up to now is       14.2 secs

     total energy              =     -39.86447339 Ry
     estimated scf accuracy    <       0.00000019 Ry

     iteration #  3     ecut=    60.00 Ry     beta= 0.70
     Davidson diagonalization with overlap
     ethr =  2.40E-09,  avg # of iterations =  2.0

     negative rho (up, down):  1.678E-04 0.000E+00

     total cpu time spent up to now is       15.1 secs

     total energy              =     -39.86447345 Ry
     estimated scf accuracy    <       0.00000002 Ry

     iteration #  4     ecut=    60.00 Ry     beta= 0.70
     Davidson diagonalization with overlap
     ethr =  2.37E-10,  avg # of iterations =  2.0

     negative rho (up, down):  1.679E-04 0.000E+00

     total cpu time spent up to now is       16.0 secs

     End of self-consistent calculation

          k = 0.0000 0.0000 0.0000 (  5735 PWs)   bands (ev):

   -21.7490  -9.3242  -5.4730  -5.2990   0.6182   1.4797   1.6933   2.6253

          k = 0.0000 0.1429 0.0000 (  5738 PWs)   bands (ev):

   -21.4534  -8.9243  -6.6673  -5.8367   1.1251   1.9540   2.1899   3.0964

          k = 0.0000 0.2858 0.0000 (  5772 PWs)   bands (ev):

   -20.6093  -9.2333  -7.7716  -6.8995   2.5664   3.2554   3.6709   4.3327

          k = 0.0000 0.4287 0.0000 (  5822 PWs)   bands (ev):

   -19.4267 -11.7803  -7.7560  -6.1037   2.1879   4.7724   6.0117   6.0940

          k = 0.0000-0.5716 0.0000 (  5768 PWs)   bands (ev):

   -18.7051 -12.9997  -8.0700  -5.0061   0.7039   5.9501   8.3633   8.8211

          k = 0.1250-0.0714 0.0000 (  5743 PWs)   bands (ev):

   -21.4474  -8.9185  -6.5400  -5.9764   1.1305   1.9614   2.1971   3.1040

          k = 0.1250 0.2143 0.0000 (  5746 PWs)   bands (ev):

   -20.8754  -8.2314  -8.1402  -6.9752   2.1114   2.8736   3.1871   3.9965

          k = 0.1250 0.3572 0.0000 (  5793 PWs)   bands (ev):

   -19.8373 -10.5751  -8.1688  -6.7007   3.1981   4.0088   5.1385   5.1598

          k = 0.1250-0.6430 0.0000 (  5796 PWs)   bands (ev):

   -18.7569 -12.5012  -8.8320  -5.1102   1.1625   6.5111   7.8351   7.8893

          k = 0.2500-0.1429 0.0000 (  5760 PWs)   bands (ev):

   -20.5850  -9.1162  -7.7492  -7.0707   2.5865   3.2879   3.6996   4.3684

          k = 0.2500 0.0000 0.0000 (  5760 PWs)   bands (ev):

   -20.8580  -8.1843  -8.1236  -7.0396   2.1295   2.8954   3.2092   4.0184

          k = 0.2500 0.2858 0.0000 (  5776 PWs)   bands (ev):

   -19.8178 -10.4832  -8.3068  -6.6840   3.2469   4.0210   5.1633   5.1808

          k = 0.2500-0.7145 0.0000 (  5802 PWs)   bands (ev):

   -18.7908 -11.6669  -9.9324  -5.1944   1.7013   6.3734   7.3369   7.6473

          k = 0.2500-0.5716 0.0000 (  5764 PWs)   bands (ev):

   -18.2112 -12.3019 -10.5709  -4.2703   0.7273   8.6297   8.8143   9.7387

          k = 0.3750-0.2143 0.0000 (  5798 PWs)   bands (ev):

   -19.3722 -11.6993  -7.9464  -6.0576   2.2784   4.7602   6.0777   6.1198

          k = 0.3750-0.0714 0.0000 (  5780 PWs)   bands (ev):

   -19.7928 -10.5221  -8.2869  -6.6603   3.2513   4.0537   5.1976   5.2179

          k = 0.3750-0.7859 0.0000 (  5787 PWs)   bands (ev):

   -18.7035 -12.4319  -8.9991  -5.0682   1.2401   6.4229   7.7785   7.8841

          k = 0.3750-0.6430 0.0000 (  5754 PWs)   bands (ev):

   -18.1757 -12.2655 -10.6571  -4.2404   0.7518   8.6046   8.7832   9.7895

          k =-0.5000 0.2858 0.0000 (  5796 PWs)   bands (ev):

   -18.6268 -12.9462  -8.2671  -4.9443   0.7947   5.6785   8.4711   8.9032

          k =-0.5000 0.4287 0.0000 (  5771 PWs)   bands (ev):

   -18.6870 -12.4585  -8.9861  -5.0518   1.2295   6.4459   7.7925   7.9309

          k =-0.5000 0.5716 0.0000 (  5810 PWs)   bands (ev):

   -18.7440 -11.6932  -9.9608  -5.1515   1.7101   6.4511   7.4126   7.7362

     the Fermi energy is    -2.0306 ev

!    total energy              =     -39.86447345 Ry

     total all-electron energy =      -159.402619 Ry
     estimated scf accuracy    <          5.3E-09 Ry
     smearing contrib. (-TS)   =      -0.00000000 Ry
     internal energy E=F+TS    =     -39.86447345 Ry

     The total energy is F=E-TS. E is the sum of the following terms:
     one-electron contribution =    -222.30653573 Ry
     hartree contribution      =     112.92997871 Ry
     xc contribution           =      -8.82542911 Ry
     ewald contribution        =      91.51804064 Ry
     one-center paw contrib.   =     -13.18052795 Ry

     convergence has been achieved in   4 iterations

     negative rho (up, down):  1.679E-04 0.000E+00

     Forces acting on atoms (cartesian axes, Ry/au):

     atom    1 type  1   force =     0.00000000    0.00367123    0.00000000
     atom    2 type  2   force =     0.00000000   -0.00367123    0.00000000

     Total force =     0.005192     Total SCF correction =     0.000008


     Computing stress (Cartesian axis) and pressure


     negative rho (up, down):  1.679E-04 0.000E+00
          total   stress  (Ry/bohr**3)                   (kbar)     P=        6.08
   0.00009922   0.00000000   0.00000000           14.60        0.00        0.00
   0.00000000   0.00002728   0.00000000            0.00        4.01        0.00
   0.00000000  -0.00000000  -0.00000260            0.00       -0.00       -0.38

     Energy error            =      7.3E-06
     Gradient error          =      3.7E-03

     number of scf cycles    =   2
     number of bfgs steps    =   1

     energy   old            =     -39.8644661389 Ry
     energy   new            =     -39.8644734532 Ry

     CASE: energy  _new < energy  _old

     new trust radius        =       0.0021324667 bohr
     new conv_thr            =            1.0E-10 Ry


ATOMIC_POSITIONS (angstrom)
B             0.0000000000       -0.0015638462        0.0000000000
N             1.2447256023        0.7274299818        0.0000000000



     Writing output data file /home/aps/Programs/SimuGlue/examples/run_cij_hbn_qe/OUTDIR/hbn/run.c1_eps-0.01/hbn.save/
     NEW-OLD atomic charge density approx. for the potential

     negative rho (up, down):  1.678E-04 0.000E+00

     total cpu time spent up to now is       18.9 secs

     Self-consistent Calculation

     iteration #  1     ecut=    60.00 Ry     beta= 0.70
     Davidson diagonalization with overlap
     ethr =  1.00E-06,  avg # of iterations =  2.1

     Threshold (ethr) on eigenvalues was too large:
     Diagonalizing with lowered threshold

     Davidson diagonalization with overlap
     ethr =  2.60E-08,  avg # of iterations =  2.2

     negative rho (up, down):  1.678E-04 0.000E+00

     total cpu time spent up to now is       20.5 secs

     total energy              =     -39.86448088 Ry
     estimated scf accuracy    <       0.00000247 Ry

     iteration #  2     ecut=    60.00 Ry     beta= 0.70
     Davidson diagonalization with overlap
     ethr =  3.08E-08,  avg # of iterations =  2.0

     negative rho (up, down):  1.679E-04 0.000E+00

     total cpu time spent up to now is       21.4 secs

     total energy              =     -39.86448124 Ry
     estimated scf accuracy    <       0.00000004 Ry

     iteration #  3     ecut=    60.00 Ry     beta= 0.70
     Davidson diagonalization with overlap
     ethr =  4.56E-10,  avg # of iterations =  2.0

     negative rho (up, down):  1.679E-04 0.000E+00

     total cpu time spent up to now is       22.3 secs

     total energy              =     -39.86448125 Ry
     estimated scf accuracy    <          5.1E-09 Ry

     iteration #  4     ecut=    60.00 Ry     beta= 0.70
     Davidson diagonalization with overlap
     ethr =  6.36E-11,  avg # of iterations =  2.0

     negative rho (up, down):  1.679E-04 0.000E+00

     total cpu time spent up to now is       23.2 secs

     total energy              =     -39.86448125 Ry
     estimated scf accuracy    <          1.2E-09 Ry

     iteration #  5     ecut=    60.00 Ry     beta= 0.70
     Davidson diagonalization with overlap
     ethr =  1.44E-11,  avg # of iterations =  1.9

     negative rho (up, down):  1.679E-04 0.000E+00

     total cpu time spent up to now is       24.1 secs

     End of self-consistent calculation

          k = 0.0000 0.0000 0.0000 (  5735 PWs)   bands (ev):

   -21.7487  -9.3241  -5.4465  -5.3250   0.6182   1.4798   1.6932   2.6253

          k = 0.0000 0.1429 0.0000 (  5738 PWs)   bands (ev):

   -21.4529  -8.9245  -6.6464  -5.8593   1.1254   1.9540   2.1899   3.0964

          k = 0.0000 0.2858 0.0000 (  5772 PWs)   bands (ev):

   -20.6081  -9.2206  -7.7729  -6.9171   2.5666   3.2559   3.6709   4.3339

          k = 0.0000 0.4287 0.0000 (  5822 PWs)   bands (ev):

   -19.4243 -11.7730  -7.7705  -6.1079   2.2000   4.7720   6.0122   6.0936

          k = 0.0000-0.5716 0.0000 (  5768 PWs)   bands (ev):

   -18.7018 -12.9946  -8.0836  -5.0145   0.7213   5.9464   8.3652   8.8208

          k = 0.1250-0.0714 0.0000 (  5743 PWs)   bands (ev):

   -21.4472  -8.9182  -6.5468  -5.9681   1.1304   1.9614   2.1971   3.1040

          k = 0.1250 0.2143 0.0000 (  5746 PWs)   bands (ev):

   -20.8748  -8.2224  -8.1405  -6.9853   2.1116   2.8737   3.1871   3.9966

          k = 0.1250 0.3572 0.0000 (  5793 PWs)   bands (ev):

   -19.8359 -10.5664  -8.1813  -6.7027   3.2051   4.0090   5.1395   5.1597

          k = 0.1250-0.6430 0.0000 (  5796 PWs)   bands (ev):

   -18.7542 -12.4956  -8.8435  -5.1163   1.1767   6.5097   7.8349   7.8868

          k = 0.2500-0.1429 0.0000 (  5760 PWs)   bands (ev):

   -20.5852  -9.1220  -7.7483  -7.0619   2.5865   3.2878   3.6996   4.3680

          k = 0.2500 0.0000 0.0000 (  5760 PWs)   bands (ev):

   -20.8584  -8.1981  -8.1225  -7.0224   2.1292   2.8953   3.2091   4.0182

          k = 0.2500 0.2858 0.0000 (  5776 PWs)   bands (ev):

   -19.8176 -10.4847  -8.3041  -6.6839   3.2479   4.0214   5.1632   5.1808

          k = 0.2500-0.7145 0.0000 (  5802 PWs)   bands (ev):

   -18.7898 -11.6641  -9.9364  -5.1961   1.7069   6.3739   7.3362   7.6473

          k = 0.2500-0.5716 0.0000 (  5764 PWs)   bands (ev):

   -18.2096 -12.2971 -10.5779  -4.2744   0.7365   8.6253   8.8138   9.7391

          k = 0.3750-0.2143 0.0000 (  5798 PWs)   bands (ev):

   -19.3731 -11.7026  -7.9389  -6.0552   2.2728   4.7607   6.0773   6.1202

          k = 0.3750-0.0714 0.0000 (  5780 PWs)   bands (ev):

   -19.7939 -10.5279  -8.2771  -6.6579   3.2443   4.0532   5.1969   5.2178

          k = 0.3750-0.7859 0.0000 (  5787 PWs)   bands (ev):

   -18.7041 -12.4344  -8.9936  -5.0658   1.2357   6.4247   7.7784   7.8836

          k = 0.3750-0.6430 0.0000 (  5754 PWs)   bands (ev):

   -18.1762 -12.2674 -10.6532  -4.2380   0.7477   8.6069   8.7841   9.7895

          k =-0.5000 0.2858 0.0000 (  5796 PWs)   bands (ev):

   -18.6283 -12.9483  -8.2601  -4.9398   0.7863   5.6811   8.4704   8.9033

          k =-0.5000 0.4287 0.0000 (  5771 PWs)   bands (ev):

   -18.6885 -12.4607  -8.9796  -5.0476   1.2204   6.4469   7.7960   7.9318

          k =-0.5000 0.5716 0.0000 (  5810 PWs)   bands (ev):

   -18.7456 -11.6973  -9.9529  -5.1474   1.7000   6.4500   7.4143   7.7361

     the Fermi energy is    -2.0305 ev

!    total energy              =     -39.86448125 Ry

     total all-electron energy =      -159.402627 Ry
     estimated scf accuracy    <          7.5E-12 Ry
     smearing contrib. (-TS)   =      -0.00000000 Ry
     internal energy E=F+TS    =     -39.86448125 Ry

     The total energy is F=E-TS. E is the sum of the following terms:
     one-electron contribution =    -222.30669250 Ry
     hartree contribution      =     112.92990540 Ry
     xc contribution           =      -8.82542702 Ry
     ewald contribution        =      91.51826152 Ry
     one-center paw contrib.   =     -13.18052864 Ry

     convergence has been achieved in   5 iterations

     negative rho (up, down):  1.679E-04 0.000E+00

     Forces acting on atoms (cartesian axes, Ry/au):

     atom    1 type  1   force =     0.00000000   -0.00001428    0.00000000
     atom    2 type  2   force =     0.00000000    0.00001428    0.00000000

     Total force =     0.000020     Total SCF correction =     0.000005
     SCF correction compared to forces is large: reduce conv_thr to get better values


     Computing stress (Cartesian axis) and pressure


     negative rho (up, down):  1.679E-04 0.000E+00
          total   stress  (Ry/bohr**3)                   (kbar)     P=        6.07
   0.00010212  -0.00000000   0.00000000           15.02       -0.00        0.00
  -0.00000000   0.00002443   0.00000000           -0.00        3.59        0.00
   0.00000000   0.00000000  -0.00000283            0.00        0.00       -0.42

     Energy error            =      7.8E-06
     Gradient error          =      1.4E-05

     bfgs converged in   3 scf cycles and   2 bfgs steps
     (criteria: energy <  1.0E-04 Ry, force <  1.0E-03 Ry/Bohr)

     End of BFGS Geometry Optimization

     Final energy   =     -39.8644812469 Ry

     File /home/aps/Programs/SimuGlue/examples/run_cij_hbn_qe/OUTDIR/hbn/run.c1_eps-0.01/hbn.bfgs deleted, as requested
Begin final coordinates

ATOMIC_POSITIONS (angstrom)
B             0.0000000000       -0.0015638462        0.0000000000
N             1.2447256023        0.7274299818        0.0000000000
End final coordinates



     Writing output data file /home/aps/Programs/SimuGlue/examples/run_cij_hbn_qe/OUTDIR/hbn/run.c1_eps-0.01/hbn.save/

     init_run     :      1.12s CPU      1.17s WALL (       1 calls)
     electrons    :     16.45s CPU     16.91s WALL (       3 calls)
     update_pot   :      1.54s CPU      1.54s WALL (       2 calls)
     forces       :      2.07s CPU      2.08s WALL (       3 calls)
     stress       :      4.20s CPU      4.22s WALL (       3 calls)

     Called by init_run:
     wfcinit      :      0.23s CPU      0.23s WALL (       1 calls)
     potinit      :      0.29s CPU      0.30s WALL (       1 calls)
     hinit0       :      0.55s CPU      0.55s WALL (       1 calls)

     Called by electrons:
     c_bands      :     11.53s CPU     11.90s WALL (      18 calls)
     sum_band     :      2.71s CPU      2.75s WALL (      18 calls)
     v_of_rho     :      0.98s CPU      1.03s WALL (      20 calls)
     newd         :      0.79s CPU      0.81s WALL (      20 calls)
     PAW_pot      :      0.57s CPU      0.57s WALL (      22 calls)
     mix_rho      :      0.12s CPU      0.12s WALL (      18 calls)

     Called by c_bands:
     init_us_2    :      0.29s CPU      0.29s WALL (     945 calls)
     cegterg      :     11.08s CPU     11.44s WALL (     378 calls)

     Called by *egterg:
     cdiaghg      :      0.11s CPU      0.12s WALL (    1430 calls)
     h_psi        :      8.26s CPU      8.53s WALL (    1514 calls)
     s_psi        :      0.40s CPU      0.41s WALL (    1514 calls)
     g_psi        :      0.07s CPU      0.07s WALL (    1115 calls)

     Called by h_psi:
     h_psi:calbec :      0.59s CPU      0.60s WALL (    1514 calls)
     vloc_psi     :      7.24s CPU      7.48s WALL (    1514 calls)
     add_vuspsi   :      0.41s CPU      0.42s WALL (    1514 calls)

     General routines
     calbec       :      1.16s CPU      1.18s WALL (    2249 calls)
     fft          :      1.13s CPU      1.16s WALL (     332 calls)
     ffts         :      0.03s CPU      0.03s WALL (      38 calls)
     fftw         :      7.89s CPU      8.13s WALL (   19344 calls)
     interpolate  :      0.07s CPU      0.07s WALL (      20 calls)

     Parallel routines
     fft_scatt_xy :      0.84s CPU      0.86s WALL (   19714 calls)
     fft_scatt_yz :      3.89s CPU      4.01s WALL (   19714 calls)

     PWSCF        :     25.64s CPU     26.21s WALL


   This run was terminated on:  13: 0:30  12Nov2025            

=------------------------------------------------------------------------------=
   JOB DONE.
=------------------------------------------------------------------------------=
