3
Lattice="11.0 12.0 13.0 21.0 22.0 23.0 31.0 32.0 33.0" Properties=species:S:1:pos:R:3:forces:R:3 energy=-1234.0 job_done=T stress="11.0004053319 12.0007061467 12.9995551461 21.0005098491 21.9993588485 22.9996596633 31.0006143663 31.9994633656 32.9997641804" virial="11.0004053344 12.0007061494 12.9995551491 21.0005098538 21.9993588534 22.9996596685 31.0006143732 31.9994633728 32.9997641879" pbc="T T T"
Mo      11.00000000      12.00000000      13.00000000      11.00000000      12.00000000      13.00000001
S       21.00000000      22.00000000      23.00000000      21.00000000      22.00000000      23.00000000
Se      31.00000000      32.00000000      33.00000000      31.00000000      32.00000001      33.00000000
