(written by ASE)

8 atoms
2 atom types

0.0             5.029182724  xlo xhi
0.0      4.3554000000000004  ylo yhi
0.0      6.6609999999999996  zlo zhi
            2.514591362                       0                       0  xy xz yz

Masses

     1                  10.811 # B
     2      14.006699999999999 # N

Atoms # full

     1   1   1   0.0                       0                       0                       0
     2   1   2   0.0      1.2572956799999999     0.72589999999999999                       0
     3   1   1   0.0      2.5145913599999998                       0                       0
     4   1   2   0.0      3.7718870400000002     0.72589999999999999                       0
     5   1   1   0.0      1.2572956799999999      2.1777000000000002                       0
     6   1   2   0.0      2.5145913599999998                  2.9036                       0
     7   1   1   0.0      3.7718870400000002      2.1777000000000002                       0
     8   1   2   0.0      5.0291827199999997                  2.9036                       0
