3
Lattice="3.2587535551274183 -0.0 0.0 1.6293767775637091 2.822161741860546 0.0 0.0 0.0 12.731003737032355" Properties=species:S:1:pos:R:3:forces:R:3 energy=-758.2320634175039 free_energy=-758.2320634175039 stress="0.02266931151927446 -0.0 -0.0 -0.0 0.02266931151927446 -0.0 -0.0 -0.0 0.03093732084414552" pbc="T T T"
Mo      -0.00098149       0.00498154       0.00000000       0.00000180      -0.00000514       1.96429479
S        1.62839592       0.94570201       1.66101826      -0.00000103       0.00000309      -2.05907877
Se       1.62839592       0.94570201      -1.66101826      -0.00000077       0.00000180       0.09478372
3
Lattice="3.238639780993711 -8.940076479046753e-08 0.0 1.6193198042889752 2.804742853101734 0.0 0.0 0.0 12.731004417654182" Properties=species:S:1:pos:R:3:forces:R:3 energy=-758.3776873151713 free_energy=-758.3776873151713 stress="0.015828119128423346 -0.0 -0.0 -0.0 0.01582720097080815 0.0 -0.0 0.0 0.019852403955842545" pbc="T T T"
Mo      -0.00097530       0.00495071       0.04042856       0.00000129      -0.00000309       0.56225578
S        1.61834462       0.93986473       1.61863905      -0.00000051       0.00000206      -0.97893982
Se       1.61834462       0.93986470      -1.65906761      -0.00000077       0.00000103       0.41668403
3
Lattice="3.211486859381941 -7.662922696325788e-08 0.0 1.605743356254628 2.781228092420228 0.0 0.0 0.0 12.731004417654182" Properties=species:S:1:pos:R:3:forces:R:3 energy=-758.4209462045008 free_energy=-758.4209462045008 stress="0.003623049949577036 -0.0 0.0 -0.0 0.003623049949577036 0.0 0.0 0.0 0.0021971511731722878" pbc="T T T"
Mo      -0.00096707       0.00490907       0.06559101      -0.00000077       0.00000077      -0.46350125
S        1.60477631       0.93198505       1.57795397       0.00000026      -0.00000026       0.18113730
Se       1.60477630       0.93198499      -1.64354498       0.00000026      -0.00000051       0.28236395
3
Lattice="3.208486387721158 -6.066480467924583e-08 0.0 1.6042431315993324 2.7786297422065886 0.0 0.0 0.0 12.731004417654182" Properties=species:S:1:pos:R:3:forces:R:3 energy=-758.4251983914005 free_energy=-758.4251983914005 stress="0.0025882863172472545 -0.0 -0.0 -0.0 0.0025882863172472545 0.0 -0.0 0.0 0.0011302520243105252" pbc="T T T"
Mo      -0.00096618       0.00490450       0.05796021      -0.00000026       0.00000000      -0.14859562
S        1.60327699       0.93111435       1.58065966       0.00000026       0.00000026       0.05105054
Se       1.60327698       0.93111428      -1.63861988       0.00000026      -0.00000026       0.09754508
3
Lattice="3.2037330480366677 -4.1507497938431354e-08 0.0 1.6018664793179513 2.7745134659862254 0.0 0.0 0.0 12.731004417654182" Properties=species:S:1:pos:R:3:forces:R:3 energy=-758.4261473884128 free_energy=-758.4261473884128 stress="0.0008144058046819136 -0.0 0.0 -0.0 0.0008144058046819136 0.0 0.0 0.0 -0.0006647461134044031" pbc="T T T"
Mo      -0.00096476       0.00489724       0.05403849      -0.00000026      -0.00000026       0.01395081
S        1.60090176       0.92973501       1.58079041      -0.00000000       0.00000026       0.02850171
Se       1.60090175       0.92973492      -1.63482889       0.00000026      -0.00000000      -0.04245277
3
Lattice="3.2027214528399877 -3.192884456802412e-08 0.0 1.6013606912982647 2.7736375172928085 0.0 0.0 0.0 12.731004417654182" Properties=species:S:1:pos:R:3:forces:R:3 energy=-758.4262400431749 free_energy=-758.4262400431749 stress="0.000617920075029231 -0.0 0.0 -0.0 0.000617920075029231 0.0 0.0 0.0 -0.0005215135254332886" pbc="T T T"
Mo      -0.00096446       0.00489569       0.05399635      -0.00000026      -0.00000026       0.01647717
S        1.60039627       0.92944149       1.58145673       0.00000000       0.00000026       0.02216265
Se       1.60039627       0.92944140      -1.63545308       0.00000026      -0.00000000      -0.03863982
3
Lattice="3.2016086974850633 -2.2350191197616882e-08 0.0 1.6008043216030137 2.772673987778741 0.0 0.0 0.0 12.731004417654182" Properties=species:S:1:pos:R:3:forces:R:3 energy=-758.4263303849693 free_energy=-758.4263303849693 stress="0.00043428855198934064 -0.0 0.0 -0.0 0.00043428855198934064 0.0 0.0 0.0 -0.0002717746540990377" pbc="T T T"
Mo      -0.00096413       0.00489398       0.05411937       0.00000026      -0.00000129       0.01228884
S        1.59984023       0.92911862       1.58228507      -0.00000026       0.00000077       0.01551764
Se       1.59984023       0.92911852      -1.63640444       0.00000000       0.00000051      -0.02780648
3
Lattice="3.1999395596633495 -9.578653370407234e-09 0.0 1.5999697654636946 2.771228709472063 0.0 0.0 0.0 12.731004417654182" Properties=species:S:1:pos:R:3:forces:R:3 energy=-758.4264088898118 free_energy=-758.4264088898118 stress="0.00016251389789030294 -0.0 -0.0 -0.0 0.00016251389789030294 0.0 -0.0 0.0 0.00011476970189993147" pbc="T T T"
Mo      -0.00096362       0.00489137       0.05433496       0.00000026       0.00000051       0.00475320
S        1.59900617       0.92863435       1.58353415      -0.00000000      -0.00000026       0.00584309
Se       1.59900618       0.92863423      -1.63786911      -0.00000000      -0.00000026      -0.01059654
3
Lattice="3.1989374632979284 -0.0 0.0 1.599468722070311 2.770361027156505 0.0 0.0 0.0 12.731004417654182" Properties=species:S:1:pos:R:3:forces:R:3 energy=-758.4264218152191 free_energy=-758.4264218152191 stress="-9.181576151994517e-07 -0.0 -0.0 -0.0 -9.181576151994517e-07 0.0 -0.0 0.0 0.00035073620900619054" pbc="T T T"
Mo      -0.00096332       0.00488984       0.05446964       0.00000000       0.00000026       0.00003342
S        1.59850542       0.92834360       1.58428981      -0.00000000      -0.00000026       0.00006222
Se       1.59850543       0.92834347      -1.63875945      -0.00000000      -0.00000026      -0.00009590
3
Lattice="11.0 12.0 13.0 21.0 22.0 23.0 31.0 32.0 33.0" Properties=species:S:1:pos:R:3:forces:R:3 energy=-1233.9989076860109 free_energy=-1233.9989076860109 stress="-6.956880250366246e-06 -7.589490847238668e-06 -8.221183286495891e-06 -7.589490847238668e-06 -1.3912842343117292e-05 -1.4545452939989714e-05 -8.221183286495891e-06 -1.4545452939989714e-05 -2.0869722593483536e-05" pbc="T T T"
Mo      11.00000000      12.00000000      13.00000000     282.82134774     308.53237935     334.24341097
S       21.00000000      22.00000000      23.00000000     539.93166387     565.64269548     591.35372710
Se      31.00000000      32.00000000      33.00000000     797.04198000     822.75301161     848.46404322
