192
Lattice="10.861899556810426 0.0 0.0 0.0 16.292849335215642 0.0 -0.00021723799113620854 0.0 21.723799113620853" Properties=species:S:1:pos:R:3:masses:R:1:momenta:R:3:id:I:1:type:I:1 comment="LAMMPS data file via write_data, version 2 Aug 2023, timestep = 4, units = metal" pbc="T T T"
X       -0.00094976      -0.00142467      -0.00189956       0.00000000       0.00000000       0.00000000       0.00000000        1        1
X       -0.00097691       2.71405022       2.71357533       0.00000000       0.00000000       0.00000000       0.00000000        2        1
X        2.71449798      -0.00142467       2.71357533       0.00000000       0.00000000       0.00000000       0.00000000        3        1
X        2.71452513       2.71405022      -0.00189956       0.00000000       0.00000000       0.00000000       0.00000000        4        1
X        1.35677411       1.35631278       1.35583789       0.00000000       0.00000000       0.00000000       0.00000000        5        1
X        1.35674695       4.07178767       4.07131278       0.00000000       0.00000000       0.00000000       0.00000000        6        1
X        4.07222184       1.35631278       4.07131278       0.00000000       0.00000000       0.00000000       0.00000000        7        1
X        4.07224900       4.07178767       1.35583789       0.00000000       0.00000000       0.00000000       0.00000000        8        1
X        5.43000002      -0.00142467      -0.00189956       0.00000000       0.00000000       0.00000000       0.00000000        9        1
X        5.42997286       2.71405022       2.71357533       0.00000000       0.00000000       0.00000000       0.00000000       10        1
X        8.14544775      -0.00142467       2.71357533       0.00000000       0.00000000       0.00000000       0.00000000       11        1
X        8.14547491       2.71405022      -0.00189956       0.00000000       0.00000000       0.00000000       0.00000000       12        1
X        6.78772389       1.35631278       1.35583789       0.00000000       0.00000000       0.00000000       0.00000000       13        1
X        6.78769673       4.07178767       4.07131278       0.00000000       0.00000000       0.00000000       0.00000000       14        1
X        9.50317162       1.35631278       4.07131278       0.00000000       0.00000000       0.00000000       0.00000000       15        1
X        9.50319878       4.07178767       1.35583789       0.00000000       0.00000000       0.00000000       0.00000000       16        1
X       -0.00094976       5.42952511      -0.00189956       0.00000000       0.00000000       0.00000000       0.00000000       17        1
X       -0.00097691       8.14500000       2.71357533       0.00000000       0.00000000       0.00000000       0.00000000       18        1
X        2.71449798       5.42952511       2.71357533       0.00000000       0.00000000       0.00000000       0.00000000       19        1
X        2.71452513       8.14500000      -0.00189956       0.00000000       0.00000000       0.00000000       0.00000000       20        1
X        1.35677411       6.78726256       1.35583789       0.00000000       0.00000000       0.00000000       0.00000000       21        1
X        1.35674695       9.50273744       4.07131278       0.00000000       0.00000000       0.00000000       0.00000000       22        1
X        4.07222184       6.78726256       4.07131278       0.00000000       0.00000000       0.00000000       0.00000000       23        1
X        4.07224900       9.50273744       1.35583789       0.00000000       0.00000000       0.00000000       0.00000000       24        1
X        5.43000002       5.42952511      -0.00189956       0.00000000       0.00000000       0.00000000       0.00000000       25        1
X        5.42997286       8.14500000       2.71357533       0.00000000       0.00000000       0.00000000       0.00000000       26        1
X        8.14544775       5.42952511       2.71357533       0.00000000       0.00000000       0.00000000       0.00000000       27        1
X        8.14547491       8.14500000      -0.00189956       0.00000000       0.00000000       0.00000000       0.00000000       28        1
X        6.78772389       6.78726256       1.35583789       0.00000000       0.00000000       0.00000000       0.00000000       29        1
X        6.78769673       9.50273744       4.07131278       0.00000000       0.00000000       0.00000000       0.00000000       30        1
X        9.50317162       6.78726256       4.07131278       0.00000000       0.00000000       0.00000000       0.00000000       31        1
X        9.50319878       9.50273744       1.35583789       0.00000000       0.00000000       0.00000000       0.00000000       32        1
X       -0.00094976      10.86047489      -0.00189956       0.00000000       0.00000000       0.00000000       0.00000000       33        1
X       -0.00097691      13.57594978       2.71357533       0.00000000       0.00000000       0.00000000       0.00000000       34        1
X        2.71449798      10.86047489       2.71357533       0.00000000       0.00000000       0.00000000       0.00000000       35        1
X        2.71452513      13.57594978      -0.00189956       0.00000000       0.00000000       0.00000000       0.00000000       36        1
X        1.35677411      12.21821233       1.35583789       0.00000000       0.00000000       0.00000000       0.00000000       37        1
X        1.35674695      14.93368722       4.07131278       0.00000000       0.00000000       0.00000000       0.00000000       38        1
X        4.07222184      12.21821233       4.07131278       0.00000000       0.00000000       0.00000000       0.00000000       39        1
X        4.07224900      14.93368722       1.35583789       0.00000000       0.00000000       0.00000000       0.00000000       40        1
X        5.43000002      10.86047489      -0.00189956       0.00000000       0.00000000       0.00000000       0.00000000       41        1
X        5.42997286      13.57594978       2.71357533       0.00000000       0.00000000       0.00000000       0.00000000       42        1
X        8.14544775      10.86047489       2.71357533       0.00000000       0.00000000       0.00000000       0.00000000       43        1
X        8.14547491      13.57594978      -0.00189956       0.00000000       0.00000000       0.00000000       0.00000000       44        1
X        6.78772389      12.21821233       1.35583789       0.00000000       0.00000000       0.00000000       0.00000000       45        1
X        6.78769673      14.93368722       4.07131278       0.00000000       0.00000000       0.00000000       0.00000000       46        1
X        9.50317162      12.21821233       4.07131278       0.00000000       0.00000000       0.00000000       0.00000000       47        1
X        9.50319878      14.93368722       1.35583789       0.00000000       0.00000000       0.00000000       0.00000000       48        1
X       -0.00100407      -0.00142467       5.42905022       0.00000000       0.00000000       0.00000000       0.00000000       49        1
X       -0.00103122       2.71405022       8.14452511       0.00000000       0.00000000       0.00000000       0.00000000       50        1
X        2.71444367      -0.00142467       8.14452511       0.00000000       0.00000000       0.00000000       0.00000000       51        1
X        2.71447082       2.71405022       5.42905022       0.00000000       0.00000000       0.00000000       0.00000000       52        1
X        1.35671980       1.35631278       6.78678767       0.00000000       0.00000000       0.00000000       0.00000000       53        1
X        1.35669264       4.07178767       9.50226256       0.00000000       0.00000000       0.00000000       0.00000000       54        1
X        4.07216753       1.35631278       9.50226256       0.00000000       0.00000000       0.00000000       0.00000000       55        1
X        4.07219469       4.07178767       6.78678767       0.00000000       0.00000000       0.00000000       0.00000000       56        1
X        5.42994571      -0.00142467       5.42905022       0.00000000       0.00000000       0.00000000       0.00000000       57        1
X        5.42991855       2.71405022       8.14452511       0.00000000       0.00000000       0.00000000       0.00000000       58        1
X        8.14539344      -0.00142467       8.14452511       0.00000000       0.00000000       0.00000000       0.00000000       59        1
X        8.14542060       2.71405022       5.42905022       0.00000000       0.00000000       0.00000000       0.00000000       60        1
X        6.78766958       1.35631278       6.78678767       0.00000000       0.00000000       0.00000000       0.00000000       61        1
X        6.78764242       4.07178767       9.50226256       0.00000000       0.00000000       0.00000000       0.00000000       62        1
X        9.50311731       1.35631278       9.50226256       0.00000000       0.00000000       0.00000000       0.00000000       63        1
X        9.50314447       4.07178767       6.78678767       0.00000000       0.00000000       0.00000000       0.00000000       64        1
X       -0.00100407       5.42952511       5.42905022       0.00000000       0.00000000       0.00000000       0.00000000       65        1
X       -0.00103122       8.14500000       8.14452511       0.00000000       0.00000000       0.00000000       0.00000000       66        1
X        2.71444367       5.42952511       8.14452511       0.00000000       0.00000000       0.00000000       0.00000000       67        1
X        2.71447082       8.14500000       5.42905022       0.00000000       0.00000000       0.00000000       0.00000000       68        1
X        1.35671980       6.78726256       6.78678767       0.00000000       0.00000000       0.00000000       0.00000000       69        1
X        1.35669264       9.50273744       9.50226256       0.00000000       0.00000000       0.00000000       0.00000000       70        1
X        4.07216753       6.78726256       9.50226256       0.00000000       0.00000000       0.00000000       0.00000000       71        1
X        4.07219469       9.50273744       6.78678767       0.00000000       0.00000000       0.00000000       0.00000000       72        1
X        5.42994571       5.42952511       5.42905022       0.00000000       0.00000000       0.00000000       0.00000000       73        1
X        5.42991855       8.14500000       8.14452511       0.00000000       0.00000000       0.00000000       0.00000000       74        1
X        8.14539344       5.42952511       8.14452511       0.00000000       0.00000000       0.00000000       0.00000000       75        1
X        8.14542060       8.14500000       5.42905022       0.00000000       0.00000000       0.00000000       0.00000000       76        1
X        6.78766958       6.78726256       6.78678767       0.00000000       0.00000000       0.00000000       0.00000000       77        1
X        6.78764242       9.50273744       9.50226256       0.00000000       0.00000000       0.00000000       0.00000000       78        1
X        9.50311731       6.78726256       9.50226256       0.00000000       0.00000000       0.00000000       0.00000000       79        1
X        9.50314447       9.50273744       6.78678767       0.00000000       0.00000000       0.00000000       0.00000000       80        1
X       -0.00100407      10.86047489       5.42905022       0.00000000       0.00000000       0.00000000       0.00000000       81        1
X       -0.00103122      13.57594978       8.14452511       0.00000000       0.00000000       0.00000000       0.00000000       82        1
X        2.71444367      10.86047489       8.14452511       0.00000000       0.00000000       0.00000000       0.00000000       83        1
X        2.71447082      13.57594978       5.42905022       0.00000000       0.00000000       0.00000000       0.00000000       84        1
X        1.35671980      12.21821233       6.78678767       0.00000000       0.00000000       0.00000000       0.00000000       85        1
X        1.35669264      14.93368722       9.50226256       0.00000000       0.00000000       0.00000000       0.00000000       86        1
X        4.07216753      12.21821233       9.50226256       0.00000000       0.00000000       0.00000000       0.00000000       87        1
X        4.07219469      14.93368722       6.78678767       0.00000000       0.00000000       0.00000000       0.00000000       88        1
X        5.42994571      10.86047489       5.42905022       0.00000000       0.00000000       0.00000000       0.00000000       89        1
X        5.42991855      13.57594978       8.14452511       0.00000000       0.00000000       0.00000000       0.00000000       90        1
X        8.14539344      10.86047489       8.14452511       0.00000000       0.00000000       0.00000000       0.00000000       91        1
X        8.14542060      13.57594978       5.42905022       0.00000000       0.00000000       0.00000000       0.00000000       92        1
X        6.78766958      12.21821233       6.78678767       0.00000000       0.00000000       0.00000000       0.00000000       93        1
X        6.78764242      14.93368722       9.50226256       0.00000000       0.00000000       0.00000000       0.00000000       94        1
X        9.50311731      12.21821233       9.50226256       0.00000000       0.00000000       0.00000000       0.00000000       95        1
X        9.50314447      14.93368722       6.78678767       0.00000000       0.00000000       0.00000000       0.00000000       96        1
X       -0.00105838      -0.00142467      10.86000000       0.00000000       0.00000000       0.00000000       0.00000000       97        1
X       -0.00108553       2.71405022      13.57547489       0.00000000       0.00000000       0.00000000       0.00000000       98        1
X        2.71438936      -0.00142467      13.57547489       0.00000000       0.00000000       0.00000000       0.00000000       99        1
X        2.71441651       2.71405022      10.86000000       0.00000000       0.00000000       0.00000000       0.00000000      100        1
X        1.35666549       1.35631278      12.21773744       0.00000000       0.00000000       0.00000000       0.00000000      101        1
X        1.35663833       4.07178767      14.93321233       0.00000000       0.00000000       0.00000000       0.00000000      102        1
X        4.07211322       1.35631278      14.93321233       0.00000000       0.00000000       0.00000000       0.00000000      103        1
X        4.07214038       4.07178767      12.21773744       0.00000000       0.00000000       0.00000000       0.00000000      104        1
X        5.42989140      -0.00142467      10.86000000       0.00000000       0.00000000       0.00000000       0.00000000      105        1
X        5.42986425       2.71405022      13.57547489       0.00000000       0.00000000       0.00000000       0.00000000      106        1
X        8.14533913      -0.00142467      13.57547489       0.00000000       0.00000000       0.00000000       0.00000000      107        1
X        8.14536629       2.71405022      10.86000000       0.00000000       0.00000000       0.00000000       0.00000000      108        1
X        6.78761527       1.35631278      12.21773744       0.00000000       0.00000000       0.00000000       0.00000000      109        1
X        6.78758811       4.07178767      14.93321233       0.00000000       0.00000000       0.00000000       0.00000000      110        1
X        9.50306300       1.35631278      14.93321233       0.00000000       0.00000000       0.00000000       0.00000000      111        1
X        9.50309016       4.07178767      12.21773744       0.00000000       0.00000000       0.00000000       0.00000000      112        1
X       -0.00105838       5.42952511      10.86000000       0.00000000       0.00000000       0.00000000       0.00000000      113        1
X       -0.00108553       8.14500000      13.57547489       0.00000000       0.00000000       0.00000000       0.00000000      114        1
X        2.71438936       5.42952511      13.57547489       0.00000000       0.00000000       0.00000000       0.00000000      115        1
X        2.71441651       8.14500000      10.86000000       0.00000000       0.00000000       0.00000000       0.00000000      116        1
X        1.35666549       6.78726256      12.21773744       0.00000000       0.00000000       0.00000000       0.00000000      117        1
X        1.35663833       9.50273744      14.93321233       0.00000000       0.00000000       0.00000000       0.00000000      118        1
X        4.07211322       6.78726256      14.93321233       0.00000000       0.00000000       0.00000000       0.00000000      119        1
X        4.07214038       9.50273744      12.21773744       0.00000000       0.00000000       0.00000000       0.00000000      120        1
X        5.42989140       5.42952511      10.86000000       0.00000000       0.00000000       0.00000000       0.00000000      121        1
X        5.42986425       8.14500000      13.57547489       0.00000000       0.00000000       0.00000000       0.00000000      122        1
X        8.14533913       5.42952511      13.57547489       0.00000000       0.00000000       0.00000000       0.00000000      123        1
X        8.14536629       8.14500000      10.86000000       0.00000000       0.00000000       0.00000000       0.00000000      124        1
X        6.78761527       6.78726256      12.21773744       0.00000000       0.00000000       0.00000000       0.00000000      125        1
X        6.78758811       9.50273744      14.93321233       0.00000000       0.00000000       0.00000000       0.00000000      126        1
X        9.50306300       6.78726256      14.93321233       0.00000000       0.00000000       0.00000000       0.00000000      127        1
X        9.50309016       9.50273744      12.21773744       0.00000000       0.00000000       0.00000000       0.00000000      128        1
X       -0.00105838      10.86047489      10.86000000       0.00000000       0.00000000       0.00000000       0.00000000      129        1
X       -0.00108553      13.57594978      13.57547489       0.00000000       0.00000000       0.00000000       0.00000000      130        1
X        2.71438936      10.86047489      13.57547489       0.00000000       0.00000000       0.00000000       0.00000000      131        1
X        2.71441651      13.57594978      10.86000000       0.00000000       0.00000000       0.00000000       0.00000000      132        1
X        1.35666549      12.21821233      12.21773744       0.00000000       0.00000000       0.00000000       0.00000000      133        1
X        1.35663833      14.93368722      14.93321233       0.00000000       0.00000000       0.00000000       0.00000000      134        1
X        4.07211322      12.21821233      14.93321233       0.00000000       0.00000000       0.00000000       0.00000000      135        1
X        4.07214038      14.93368722      12.21773744       0.00000000       0.00000000       0.00000000       0.00000000      136        1
X        5.42989140      10.86047489      10.86000000       0.00000000       0.00000000       0.00000000       0.00000000      137        1
X        5.42986425      13.57594978      13.57547489       0.00000000       0.00000000       0.00000000       0.00000000      138        1
X        8.14533913      10.86047489      13.57547489       0.00000000       0.00000000       0.00000000       0.00000000      139        1
X        8.14536629      13.57594978      10.86000000       0.00000000       0.00000000       0.00000000       0.00000000      140        1
X        6.78761527      12.21821233      12.21773744       0.00000000       0.00000000       0.00000000       0.00000000      141        1
X        6.78758811      14.93368722      14.93321233       0.00000000       0.00000000       0.00000000       0.00000000      142        1
X        9.50306300      12.21821233      14.93321233       0.00000000       0.00000000       0.00000000       0.00000000      143        1
X        9.50309016      14.93368722      12.21773744       0.00000000       0.00000000       0.00000000       0.00000000      144        1
X       -0.00111269      -0.00142467      16.29094978       0.00000000       0.00000000       0.00000000       0.00000000      145        1
X       -0.00113984       2.71405022      19.00642467       0.00000000       0.00000000       0.00000000       0.00000000      146        1
X        2.71433505      -0.00142467      19.00642467       0.00000000       0.00000000       0.00000000       0.00000000      147        1
X        2.71436220       2.71405022      16.29094978       0.00000000       0.00000000       0.00000000       0.00000000      148        1
X        1.35661118       1.35631278      17.64868722       0.00000000       0.00000000       0.00000000       0.00000000      149        1
X        1.35658402       4.07178767      20.36416211       0.00000000       0.00000000       0.00000000       0.00000000      150        1
X        4.07205891       1.35631278      20.36416211       0.00000000       0.00000000       0.00000000       0.00000000      151        1
X        4.07208607       4.07178767      17.64868722       0.00000000       0.00000000       0.00000000       0.00000000      152        1
X        5.42983709      -0.00142467      16.29094978       0.00000000       0.00000000       0.00000000       0.00000000      153        1
X        5.42980994       2.71405022      19.00642467       0.00000000       0.00000000       0.00000000       0.00000000      154        1
X        8.14528482      -0.00142467      19.00642467       0.00000000       0.00000000       0.00000000       0.00000000      155        1
X        8.14531198       2.71405022      16.29094978       0.00000000       0.00000000       0.00000000       0.00000000      156        1
X        6.78756096       1.35631278      17.64868722       0.00000000       0.00000000       0.00000000       0.00000000      157        1
X        6.78753380       4.07178767      20.36416211       0.00000000       0.00000000       0.00000000       0.00000000      158        1
X        9.50300869       1.35631278      20.36416211       0.00000000       0.00000000       0.00000000       0.00000000      159        1
X        9.50303585       4.07178767      17.64868722       0.00000000       0.00000000       0.00000000       0.00000000      160        1
X       -0.00111269       5.42952511      16.29094978       0.00000000       0.00000000       0.00000000       0.00000000      161        1
X       -0.00113984       8.14500000      19.00642467       0.00000000       0.00000000       0.00000000       0.00000000      162        1
X        2.71433505       5.42952511      19.00642467       0.00000000       0.00000000       0.00000000       0.00000000      163        1
X        2.71436220       8.14500000      16.29094978       0.00000000       0.00000000       0.00000000       0.00000000      164        1
X        1.35661118       6.78726256      17.64868722       0.00000000       0.00000000       0.00000000       0.00000000      165        1
X        1.35658402       9.50273744      20.36416211       0.00000000       0.00000000       0.00000000       0.00000000      166        1
X        4.07205891       6.78726256      20.36416211       0.00000000       0.00000000       0.00000000       0.00000000      167        1
X        4.07208607       9.50273744      17.64868722       0.00000000       0.00000000       0.00000000       0.00000000      168        1
X        5.42983709       5.42952511      16.29094978       0.00000000       0.00000000       0.00000000       0.00000000      169        1
X        5.42980994       8.14500000      19.00642467       0.00000000       0.00000000       0.00000000       0.00000000      170        1
X        8.14528482       5.42952511      19.00642467       0.00000000       0.00000000       0.00000000       0.00000000      171        1
X        8.14531198       8.14500000      16.29094978       0.00000000       0.00000000       0.00000000       0.00000000      172        1
X        6.78756096       6.78726256      17.64868722       0.00000000       0.00000000       0.00000000       0.00000000      173        1
X        6.78753380       9.50273744      20.36416211       0.00000000       0.00000000       0.00000000       0.00000000      174        1
X        9.50300869       6.78726256      20.36416211       0.00000000       0.00000000       0.00000000       0.00000000      175        1
X        9.50303585       9.50273744      17.64868722       0.00000000       0.00000000       0.00000000       0.00000000      176        1
X       -0.00111269      10.86047489      16.29094978       0.00000000       0.00000000       0.00000000       0.00000000      177        1
X       -0.00113984      13.57594978      19.00642467       0.00000000       0.00000000       0.00000000       0.00000000      178        1
X        2.71433505      10.86047489      19.00642467       0.00000000       0.00000000       0.00000000       0.00000000      179        1
X        2.71436220      13.57594978      16.29094978       0.00000000       0.00000000       0.00000000       0.00000000      180        1
X        1.35661118      12.21821233      17.64868722       0.00000000       0.00000000       0.00000000       0.00000000      181        1
X        1.35658402      14.93368722      20.36416211       0.00000000       0.00000000       0.00000000       0.00000000      182        1
X        4.07205891      12.21821233      20.36416211       0.00000000       0.00000000       0.00000000       0.00000000      183        1
X        4.07208607      14.93368722      17.64868722       0.00000000       0.00000000       0.00000000       0.00000000      184        1
X        5.42983709      10.86047489      16.29094978       0.00000000       0.00000000       0.00000000       0.00000000      185        1
X        5.42980994      13.57594978      19.00642467       0.00000000       0.00000000       0.00000000       0.00000000      186        1
X        8.14528482      10.86047489      19.00642467       0.00000000       0.00000000       0.00000000       0.00000000      187        1
X        8.14531198      13.57594978      16.29094978       0.00000000       0.00000000       0.00000000       0.00000000      188        1
X        6.78756096      12.21821233      17.64868722       0.00000000       0.00000000       0.00000000       0.00000000      189        1
X        6.78753380      14.93368722      20.36416211       0.00000000       0.00000000       0.00000000       0.00000000      190        1
X        9.50300869      12.21821233      20.36416211       0.00000000       0.00000000       0.00000000       0.00000000      191        1
X        9.50303585      14.93368722      17.64868722       0.00000000       0.00000000       0.00000000       0.00000000      192        1
