# LAMMPS data file l_bond = 1.44568507405082 Angstrom, interlayer distance = 3.3305 Angstrom

4 atoms
0 bonds
0 angles
0 dihedrals

1 atom types
0 bond types
0 angle types
0 dihedral types

0	2.459512147	xlo xhi
0	4.26		ylo yhi
0	3.35		zlo zhi

Masses

1      12.011 # C

Atoms

1	1	1	1	1.229756073	0	0.0
2	1	1	1	0.0		0.71	0.0
3	1	1	1	0.0		2.13	0.0
4	1	1	1	1.229756073	2.84	0.0
