(written by ASE)

3 atoms
1 atom types

0.0    0.099999999999999978  xlo xhi
0.0     0.19999999999999996  ylo yhi
0.0     0.29999999999999977  zlo zhi
    0.59999999999999998                     0.5     0.40000000000000019  xy xz yz

Atoms # atomic

     1   1      1.3479999999999999     0.67599999999999982     0.33899999999999991
     2   1                   1.468     0.73599999999999988     0.36899999999999994
     3   1      1.5880000000000001     0.79599999999999993     0.39899999999999997


Velocities

     1                       0                       0                       0
     2                       0                       0                       0
     3                       0                       0                       0
