(written by ASE)

3 atoms
1 atom types

0.0     0.10000000000000001  xlo xhi
0.0     0.20000000000000009  ylo yhi
0.0     0.30000000000000016  zlo zhi
    0.59999999999999998                     0.5     0.39999999999999991  xy xz yz

Atoms # atomic

     1   1      1.3479999999999999      0.6759999999999996     0.33900000000000052
     2   1                   1.468     0.73599999999999954     0.36900000000000061
     3   1      1.5880000000000001      0.7959999999999996     0.39900000000000069


Velocities

     1                       0                       0                       0
     2                       0                       0                       0
     3                       0                       0                       0
