# cwd: o.res_pa_m/run.c1_eps0.01
# cmd: mpirun -np 3 pw.x -in qe.in


     Program PWSCF v.6.7MaX starts on 12Nov2025 at 12:58:39 

     This program is part of the open-source Quantum ESPRESSO suite
     for quantum simulation of materials; please cite
         "P. Giannozzi et al., J. Phys.:Condens. Matter 21 395502 (2009);
         "P. Giannozzi et al., J. Phys.:Condens. Matter 29 465901 (2017);
          URL http://www.quantum-espresso.org", 
     in publications or presentations arising from this work. More details at
     http://www.quantum-espresso.org/quote

     Parallel version (MPI), running on     3 processors

     MPI processes distributed on     1 nodes
     R & G space division:  proc/nbgrp/npool/nimage =       3
     Reading input from qe.in

     Current dimensions of program PWSCF are:
     Max number of different atomic species (ntypx) = 10
     Max number of k-points (npk) =  40000
     Max angular momentum in pseudopotentials (lmaxx) =  3
     file N.pbe-n-kjpaw_psl.1.0.0.UPF: wavefunction(s)  2S renormalized

     Subspace diagonalization in iterative solution of the eigenvalue problem:
     a serial algorithm will be used

     Message from routine setup:
     using ibrav=0 with symmetry is DISCOURAGED, use correct ibrav instead

     Parallelization info
     --------------------
     sticks:   dense  smooth     PW     G-vecs:    dense   smooth      PW
     Min         250     126     40                44472    15723    2978
     Max         252     127     41                44473    15726    3009
     Sum         753     379    121               133417    47173    8971



     bravais-lattice index     =            0
     lattice parameter (alat)  =       4.7994  a.u.
     unit-cell volume          =     750.8335 (a.u.)^3
     number of atoms/cell      =            2
     number of atomic types    =            2
     number of electrons       =         8.00
     number of Kohn-Sham states=            8
     kinetic-energy cutoff     =      60.0000  Ry
     charge density cutoff     =     480.0000  Ry
     scf convergence threshold =      1.0E-08
     mixing beta               =       0.7000
     number of iterations used =            8  plain     mixing
     energy convergence thresh.=      1.0E-04
     force convergence thresh. =      1.0E-03
     Exchange-correlation= SLA  PW   PBX  PBC
                           (   1   4   3   4   0   0   0)
     nstep                     =           50


     celldm(1)=   4.799419  celldm(2)=   0.000000  celldm(3)=   0.000000
     celldm(4)=   0.000000  celldm(5)=   0.000000  celldm(6)=   0.000000

     crystal axes: (cart. coord. in units of alat)
               a(1) = (   1.000000   0.000000   0.000000 )  
               a(2) = (   0.500000   0.857450   0.000000 )  
               a(3) = (   0.000000   0.000000   7.920792 )  

     reciprocal axes: (cart. coord. in units 2 pi/alat)
               b(1) = (  1.000000 -0.583124  0.000000 )  
               b(2) = (  0.000000  1.166248  0.000000 )  
               b(3) = (  0.000000  0.000000  0.126250 )  


     PseudoPot. # 1 for B  read from file:
     ../../PSEUDO/B.pbe-n-kjpaw_psl.1.0.0.UPF
     MD5 check sum: cdf8f75bef5223b293e087bc2c755083
     Pseudo is Projector augmented-wave + core cor, Zval =  3.0
     Generated using 'atomic' code by A. Dal Corso  v.7.0
     Shape of augmentation charge: PSQ
     Using radial grid of 1059 points,  4 beta functions with: 
                l(1) =   0
                l(2) =   0
                l(3) =   1
                l(4) =   1
     Q(r) pseudized with 0 coefficients 


     PseudoPot. # 2 for N  read from file:
     ../../PSEUDO/N.pbe-n-kjpaw_psl.1.0.0.UPF
     MD5 check sum: 0fbee1c51453e7d4733b1acc8ff6f686
     Pseudo is Projector augmented-wave + core cor, Zval =  5.0
     Generated using 'atomic' code by A. Dal Corso  v.7.0
     Shape of augmentation charge: PSQ
     Using radial grid of 1085 points,  4 beta functions with: 
                l(1) =   0
                l(2) =   0
                l(3) =   1
                l(4) =   1
     Q(r) pseudized with 0 coefficients 


     atomic species   valence    mass     pseudopotential
        B              3.00    10.81000     B ( 1.00)
        N              5.00    14.01000     N ( 1.00)

      4 Sym. Ops. (no inversion) found



   Cartesian axes

     site n.     atom                  positions (alat units)
         1           B   tau(   1) = (   0.0000000   0.0000000   0.0000000  )
         2           N   tau(   2) = (   0.5000000   0.2858030   0.0000000  )

     number of k points=    21  Gaussian smearing, width (Ry)=  0.0010
                       cart. coord. in units 2pi/alat
        k(    1) = (   0.0000000   0.0000000   0.0000000), wk =   0.0312500
        k(    2) = (   0.0000000   0.1457810   0.0000000), wk =   0.0625000
        k(    3) = (   0.0000000   0.2915620   0.0000000), wk =   0.0625000
        k(    4) = (   0.0000000   0.4373430   0.0000000), wk =   0.0625000
        k(    5) = (   0.0000000  -0.5831240   0.0000000), wk =   0.0312500
        k(    6) = (   0.1250000  -0.0728905   0.0000000), wk =   0.1250000
        k(    7) = (   0.1250000   0.2186715   0.0000000), wk =   0.1250000
        k(    8) = (   0.1250000   0.3644525   0.0000000), wk =   0.1250000
        k(    9) = (   0.1250000  -0.6560145   0.0000000), wk =   0.1250000
        k(   10) = (   0.2500000  -0.1457810   0.0000000), wk =   0.1250000
        k(   11) = (   0.2500000   0.0000000   0.0000000), wk =   0.0625000
        k(   12) = (   0.2500000   0.2915620   0.0000000), wk =   0.1250000
        k(   13) = (   0.2500000  -0.7289051   0.0000000), wk =   0.1250000
        k(   14) = (   0.2500000  -0.5831240   0.0000000), wk =   0.0625000
        k(   15) = (   0.3750000  -0.2186715   0.0000000), wk =   0.1250000
        k(   16) = (   0.3750000  -0.0728905   0.0000000), wk =   0.1250000
        k(   17) = (   0.3750000  -0.8017956   0.0000000), wk =   0.1250000
        k(   18) = (   0.3750000  -0.6560145   0.0000000), wk =   0.1250000
        k(   19) = (  -0.5000000   0.2915620   0.0000000), wk =   0.0625000
        k(   20) = (  -0.5000000   0.4373430   0.0000000), wk =   0.1250000
        k(   21) = (  -0.5000000   0.5831240   0.0000000), wk =   0.0625000

     Dense  grid:   133417 G-vectors     FFT dimensions: (  36,  36, 270)

     Smooth grid:    47173 G-vectors     FFT dimensions: (  24,  24, 192)

     Estimated max dynamical RAM per process >      68.33 MB

     Estimated total dynamical RAM >     204.98 MB

     Initial potential from superposition of free atoms

     starting charge    7.99971, renormalised to    8.00000

     negative rho (up, down):  8.809E-05 0.000E+00
     Starting wfcs are    8 randomized atomic wfcs
     Checking if some PAW data can be deallocated... 

     total cpu time spent up to now is        1.1 secs

     Self-consistent Calculation

     iteration #  1     ecut=    60.00 Ry     beta= 0.70
     Davidson diagonalization with overlap
     ethr =  1.00E-02,  avg # of iterations =  7.2

     negative rho (up, down):  1.387E-04 0.000E+00

     total cpu time spent up to now is        2.3 secs

     total energy              =     -39.73403966 Ry
     estimated scf accuracy    <       0.38826314 Ry

     iteration #  2     ecut=    60.00 Ry     beta= 0.70
     Davidson diagonalization with overlap
     ethr =  4.85E-03,  avg # of iterations =  4.9

     negative rho (up, down):  1.332E-04 0.000E+00

     total cpu time spent up to now is        3.2 secs

     total energy              =     -39.82147336 Ry
     estimated scf accuracy    <       0.20854545 Ry

     iteration #  3     ecut=    60.00 Ry     beta= 0.70
     Davidson diagonalization with overlap
     ethr =  2.61E-03,  avg # of iterations =  2.1

     negative rho (up, down):  1.504E-04 0.000E+00

     total cpu time spent up to now is        4.0 secs

     total energy              =     -39.86401697 Ry
     estimated scf accuracy    <       0.00196061 Ry

     iteration #  4     ecut=    60.00 Ry     beta= 0.70
     Davidson diagonalization with overlap
     ethr =  2.45E-05,  avg # of iterations =  9.3

     negative rho (up, down):  1.578E-04 0.000E+00

     total cpu time spent up to now is        5.2 secs

     total energy              =     -39.86447035 Ry
     estimated scf accuracy    <       0.00034005 Ry

     iteration #  5     ecut=    60.00 Ry     beta= 0.70
     Davidson diagonalization with overlap
     ethr =  4.25E-06,  avg # of iterations =  2.1

     negative rho (up, down):  1.613E-04 0.000E+00

     total cpu time spent up to now is        6.0 secs

     total energy              =     -39.86454531 Ry
     estimated scf accuracy    <       0.00001428 Ry

     iteration #  6     ecut=    60.00 Ry     beta= 0.70
     Davidson diagonalization with overlap
     ethr =  1.78E-07,  avg # of iterations =  1.5

     negative rho (up, down):  1.610E-04 0.000E+00

     total cpu time spent up to now is        6.7 secs

     total energy              =     -39.86454568 Ry
     estimated scf accuracy    <       0.00000174 Ry

     iteration #  7     ecut=    60.00 Ry     beta= 0.70
     Davidson diagonalization with overlap
     ethr =  2.18E-08,  avg # of iterations =  2.0

     negative rho (up, down):  1.611E-04 0.000E+00

     total cpu time spent up to now is        7.6 secs

     End of self-consistent calculation

          k = 0.0000 0.0000 0.0000 (  5863 PWs)   bands (ev):

   -21.6340  -9.2332  -5.5040  -5.4614   0.5842   1.4563   1.6713   2.6026

          k = 0.0000 0.1458 0.0000 (  5832 PWs)   bands (ev):

   -21.3377  -8.8351  -6.6240  -6.0523   1.0904   1.9291   2.1677   3.0717

          k = 0.0000 0.2916 0.0000 (  5868 PWs)   bands (ev):

   -20.4918  -9.1466  -7.6884  -7.1308   2.5191   3.2104   3.6466   4.2768

          k = 0.0000 0.4373 0.0000 (  5914 PWs)   bands (ev):

   -19.3072 -11.6709  -7.9964  -6.0304   2.1027   4.5638   5.9401   5.9831

          k = 0.0000-0.5831 0.0000 (  5876 PWs)   bands (ev):

   -18.5850 -12.8839  -8.3133  -4.9399   0.6583   5.2351   8.3149   8.7449

          k = 0.1250-0.0729 0.0000 (  5843 PWs)   bands (ev):

   -21.3428  -8.8417  -6.6783  -5.9937   1.0862   1.9218   2.1608   3.0644

          k = 0.1250 0.2187 0.0000 (  5854 PWs)   bands (ev):

   -20.7701  -8.2734  -8.0676  -7.0487   2.0637   2.8258   3.1503   3.9438

          k = 0.1250 0.3645 0.0000 (  5899 PWs)   bands (ev):

   -19.7317 -10.5073  -8.3305  -6.6372   3.0466   3.9411   5.0877   5.1194

          k = 0.1250-0.6560 0.0000 (  5908 PWs)   bands (ev):

   -18.6535 -12.3931  -9.0254  -5.0591   1.0778   6.1218   7.5163   7.7750

          k = 0.2500-0.1458 0.0000 (  5875 PWs)   bands (ev):

   -20.5121  -9.2150  -7.7148  -7.0284   2.5022   3.1806   3.6192   4.2464

          k = 0.2500 0.0000 0.0000 (  5872 PWs)   bands (ev):

   -20.7847  -8.2615  -8.0867  -7.0544   2.0481   2.8053   3.1291   3.9238

          k = 0.2500 0.2916 0.0000 (  5896 PWs)   bands (ev):

   -19.7479 -10.5703  -8.2344  -6.6582   3.0151   3.9316   5.0666   5.0997

          k = 0.2500-0.7289 0.0000 (  5918 PWs)   bands (ev):

   -18.7308 -11.6540  -9.9426  -5.1859   1.5226   6.2669   7.2439   7.5634

          k = 0.2500-0.5831 0.0000 (  5908 PWs)   bands (ev):

   -18.1623 -12.1928 -10.6666  -4.2779   0.5984   8.4375   8.4488   9.5757

          k = 0.3750-0.2187 0.0000 (  5918 PWs)   bands (ev):

   -19.3523 -11.7240  -7.8641  -6.0897   2.0590   4.6033   5.9202   5.9611

          k = 0.3750-0.0729 0.0000 (  5888 PWs)   bands (ev):

   -19.7687 -10.5227  -8.2705  -6.6860   3.0309   3.9026   5.0342   5.0639

          k = 0.3750-0.8018 0.0000 (  5904 PWs)   bands (ev):

   -18.6974 -12.4408  -8.9041  -5.1186   1.0481   6.2500   7.6006   7.7289

          k = 0.3750-0.6560 0.0000 (  5903 PWs)   bands (ev):

   -18.1914 -12.2127 -10.6086  -4.3210   0.6061   8.4448   8.5058   9.5329

          k =-0.5000 0.2916 0.0000 (  5924 PWs)   bands (ev):

   -18.6493 -12.9191  -8.1708  -5.0283   0.6318   5.4946   8.2145   8.6571

          k =-0.5000 0.4373 0.0000 (  5894 PWs)   bands (ev):

   -18.7109 -12.4160  -8.9190  -5.1382   1.0688   6.2297   7.5784   7.6801

          k =-0.5000 0.5831 0.0000 (  5918 PWs)   bands (ev):

   -18.7693 -11.6102  -9.9456  -5.2399   1.5512   6.1982   7.1649   7.4783

     the Fermi energy is    -2.1211 ev

!    total energy              =     -39.86454610 Ry

     total all-electron energy =      -159.402692 Ry
     estimated scf accuracy    <          4.1E-09 Ry
     smearing contrib. (-TS)   =      -0.00000000 Ry
     internal energy E=F+TS    =     -39.86454610 Ry

     The total energy is F=E-TS. E is the sum of the following terms:
     one-electron contribution =    -217.93035208 Ry
     hartree contribution      =     110.71783025 Ry
     xc contribution           =      -8.78348579 Ry
     ewald contribution        =      89.31151200 Ry
     one-center paw contrib.   =     -13.18005048 Ry

     convergence has been achieved in   7 iterations

     negative rho (up, down):  1.611E-04 0.000E+00

     Forces acting on atoms (cartesian axes, Ry/au):

     atom    1 type  1   force =     0.00000000    0.00424364    0.00000000
     atom    2 type  2   force =     0.00000000   -0.00424364    0.00000000

     Total force =     0.006001     Total SCF correction =     0.000001


     Computing stress (Cartesian axis) and pressure


     negative rho (up, down):  1.611E-04 0.000E+00
          total   stress  (Ry/bohr**3)                   (kbar)     P=       -5.68
  -0.00009672   0.00000000   0.00000000          -14.23        0.00        0.00
   0.00000000  -0.00001655  -0.00000000            0.00       -2.43       -0.00
   0.00000000   0.00000000  -0.00000260            0.00        0.00       -0.38


     BFGS Geometry Optimization
     Energy error            =      0.0E+00
     Gradient error          =      4.2E-03

     number of scf cycles    =   1
     number of bfgs steps    =   0

     energy   new            =     -39.8645460966 Ry

     new trust radius        =       0.0042436423 bohr
     new conv_thr            =       0.0000000100 Ry


ATOMIC_POSITIONS (angstrom)
B             0.0000000000        0.0022456388        0.0000000000
N             1.2698715741        0.7236204967        0.0000000000



     Writing output data file /home/aps/Programs/SimuGlue/examples/run_cij_hbn_qe/OUTDIR/hbn/run.c1_eps0.01/hbn.save/
     NEW-OLD atomic charge density approx. for the potential

     negative rho (up, down):  1.611E-04 0.000E+00

     total cpu time spent up to now is       10.2 secs

     Self-consistent Calculation

     iteration #  1     ecut=    60.00 Ry     beta= 0.70
     Davidson diagonalization with overlap
     ethr =  1.00E-06,  avg # of iterations =  3.1

     negative rho (up, down):  1.611E-04 0.000E+00

     total cpu time spent up to now is       11.2 secs

     total energy              =     -39.86455143 Ry
     estimated scf accuracy    <       0.00000887 Ry

     iteration #  2     ecut=    60.00 Ry     beta= 0.70
     Davidson diagonalization with overlap
     ethr =  1.11E-07,  avg # of iterations =  2.0

     negative rho (up, down):  1.611E-04 0.000E+00

     total cpu time spent up to now is       11.9 secs

     total energy              =     -39.86455287 Ry
     estimated scf accuracy    <       0.00000012 Ry

     iteration #  3     ecut=    60.00 Ry     beta= 0.70
     Davidson diagonalization with overlap
     ethr =  1.50E-09,  avg # of iterations =  2.2

     negative rho (up, down):  1.611E-04 0.000E+00

     total cpu time spent up to now is       12.7 secs

     End of self-consistent calculation

          k = 0.0000 0.0000 0.0000 (  5863 PWs)   bands (ev):

   -21.6339  -9.2331  -5.5546  -5.4106   0.5842   1.4563   1.6712   2.6025

          k = 0.0000 0.1458 0.0000 (  5832 PWs)   bands (ev):

   -21.3372  -8.8356  -6.5838  -6.0962   1.0907   1.9290   2.1676   3.0716

          k = 0.0000 0.2916 0.0000 (  5868 PWs)   bands (ev):

   -20.4899  -9.1221  -7.6910  -7.1647   2.5193   3.2114   3.6464   4.2791

          k = 0.0000 0.4373 0.0000 (  5914 PWs)   bands (ev):

   -19.3030 -11.6571  -8.0244  -6.0388   2.1255   4.5613   5.9370   5.9836

          k = 0.0000-0.5831 0.0000 (  5876 PWs)   bands (ev):

   -18.5788 -12.8747  -8.3394  -4.9562   0.6914   5.2266   8.3182   8.7442

          k = 0.1250-0.0729 0.0000 (  5843 PWs)   bands (ev):

   -21.3429  -8.8414  -6.7007  -5.9690   1.0860   1.9218   2.1607   3.0643

          k = 0.1250 0.2187 0.0000 (  5854 PWs)   bands (ev):

   -20.7694  -8.2620  -8.0684  -7.0625   2.0641   2.8259   3.1502   3.9441

          k = 0.1250 0.3645 0.0000 (  5899 PWs)   bands (ev):

   -19.7293 -10.4915  -8.3543  -6.6413   3.0595   3.9414   5.0892   5.1193

          k = 0.1250-0.6560 0.0000 (  5908 PWs)   bands (ev):

   -18.6486 -12.3827  -9.0479  -5.0708   1.1045   6.1155   7.5122   7.7741

          k = 0.2500-0.1458 0.0000 (  5875 PWs)   bands (ev):

   -20.5128  -9.2271  -7.7133  -7.0111   2.5020   3.1800   3.6190   4.2447

          k = 0.2500 0.0000 0.0000 (  5872 PWs)   bands (ev):

   -20.7857  -8.2892  -8.0848  -7.0209   2.0473   2.8051   3.1289   3.9230

          k = 0.2500 0.2916 0.0000 (  5896 PWs)   bands (ev):

   -19.7476 -10.5748  -8.2285  -6.6581   3.0157   3.9324   5.0660   5.0996

          k = 0.2500-0.7289 0.0000 (  5918 PWs)   bands (ev):

   -18.7288 -11.6502  -9.9497  -5.1893   1.5319   6.2681   7.2422   7.5635

          k = 0.2500-0.5831 0.0000 (  5908 PWs)   bands (ev):

   -18.1593 -12.1837 -10.6812  -4.2856   0.6143   8.4287   8.4458   9.5751

          k = 0.3750-0.2187 0.0000 (  5918 PWs)   bands (ev):

   -19.3540 -11.7309  -7.8499  -6.0853   2.0471   4.6041   5.9196   5.9617

          k = 0.3750-0.0729 0.0000 (  5888 PWs)   bands (ev):

   -19.7709 -10.5347  -8.2518  -6.6816   3.0162   3.9016   5.0328   5.0637

          k = 0.3750-0.8018 0.0000 (  5904 PWs)   bands (ev):

   -18.6985 -12.4464  -8.8939  -5.1141   1.0384   6.2534   7.5990   7.7277

          k = 0.3750-0.6560 0.0000 (  5903 PWs)   bands (ev):

   -18.1921 -12.2175 -10.6016  -4.3165   0.5969   8.4492   8.5070   9.5330

          k =-0.5000 0.2916 0.0000 (  5924 PWs)   bands (ev):

   -18.6517 -12.9241  -8.1576  -5.0198   0.6147   5.4982   8.2125   8.6570

          k =-0.5000 0.4373 0.0000 (  5894 PWs)   bands (ev):

   -18.7136 -12.4214  -8.9068  -5.1303   1.0505   6.2308   7.5841   7.6816

          k =-0.5000 0.5831 0.0000 (  5918 PWs)   bands (ev):

   -18.7721 -11.6194  -9.9305  -5.2323   1.5309   6.1961   7.1678   7.4778

     the Fermi energy is    -2.1215 ev

!    total energy              =     -39.86455290 Ry

     total all-electron energy =      -159.402698 Ry
     estimated scf accuracy    <          9.6E-09 Ry
     smearing contrib. (-TS)   =      -0.00000000 Ry
     internal energy E=F+TS    =     -39.86455290 Ry

     The total energy is F=E-TS. E is the sum of the following terms:
     one-electron contribution =    -217.92944528 Ry
     hartree contribution      =     110.71733564 Ry
     xc contribution           =      -8.78338676 Ry
     ewald contribution        =      89.31098490 Ry
     one-center paw contrib.   =     -13.18004141 Ry

     convergence has been achieved in   3 iterations

     negative rho (up, down):  1.611E-04 0.000E+00

     Forces acting on atoms (cartesian axes, Ry/au):

     atom    1 type  1   force =     0.00000000   -0.00261003    0.00000000
     atom    2 type  2   force =     0.00000000    0.00261003    0.00000000

     Total force =     0.003691     Total SCF correction =     0.000091


     Computing stress (Cartesian axis) and pressure


     negative rho (up, down):  1.611E-04 0.000E+00
          total   stress  (Ry/bohr**3)                   (kbar)     P=       -5.72
  -0.00009212   0.00000000   0.00000000          -13.55        0.00        0.00
   0.00000000  -0.00002189   0.00000000            0.00       -3.22        0.00
   0.00000000   0.00000000  -0.00000269            0.00        0.00       -0.40

     Energy error            =      6.8E-06
     Gradient error          =      2.6E-03

     number of scf cycles    =   2
     number of bfgs steps    =   1

     energy   old            =     -39.8645460966 Ry
     energy   new            =     -39.8645529041 Ry

     CASE: energy  _new < energy  _old

     new trust radius        =       0.0016160740 bohr
     new conv_thr            =            1.0E-10 Ry


ATOMIC_POSITIONS (angstrom)
B             0.0000000000        0.0013904493        0.0000000000
N             1.2698715741        0.7244756862        0.0000000000



     Writing output data file /home/aps/Programs/SimuGlue/examples/run_cij_hbn_qe/OUTDIR/hbn/run.c1_eps0.01/hbn.save/
     NEW-OLD atomic charge density approx. for the potential

     negative rho (up, down):  1.610E-04 0.000E+00

     total cpu time spent up to now is       15.4 secs

     Self-consistent Calculation

     iteration #  1     ecut=    60.00 Ry     beta= 0.70
     Davidson diagonalization with overlap
     ethr =  1.00E-06,  avg # of iterations =  2.0

     Threshold (ethr) on eigenvalues was too large:
     Diagonalizing with lowered threshold

     Davidson diagonalization with overlap
     ethr =  1.29E-08,  avg # of iterations =  2.4

     negative rho (up, down):  1.611E-04 0.000E+00

     total cpu time spent up to now is       16.9 secs

     total energy              =     -39.86455699 Ry
     estimated scf accuracy    <       0.00000129 Ry

     iteration #  2     ecut=    60.00 Ry     beta= 0.70
     Davidson diagonalization with overlap
     ethr =  1.61E-08,  avg # of iterations =  2.0

     negative rho (up, down):  1.611E-04 0.000E+00

     total cpu time spent up to now is       17.7 secs

     total energy              =     -39.86455718 Ry
     estimated scf accuracy    <       0.00000002 Ry

     iteration #  3     ecut=    60.00 Ry     beta= 0.70
     Davidson diagonalization with overlap
     ethr =  2.28E-10,  avg # of iterations =  2.0

     negative rho (up, down):  1.611E-04 0.000E+00

     total cpu time spent up to now is       18.5 secs

     total energy              =     -39.86455719 Ry
     estimated scf accuracy    <          1.8E-09 Ry

     iteration #  4     ecut=    60.00 Ry     beta= 0.70
     Davidson diagonalization with overlap
     ethr =  2.27E-11,  avg # of iterations =  2.0

     negative rho (up, down):  1.611E-04 0.000E+00

     total cpu time spent up to now is       19.4 secs

     total energy              =     -39.86455719 Ry
     estimated scf accuracy    <          5.1E-10 Ry

     iteration #  5     ecut=    60.00 Ry     beta= 0.70
     Davidson diagonalization with overlap
     ethr =  6.35E-12,  avg # of iterations =  2.0

     negative rho (up, down):  1.611E-04 0.000E+00

     total cpu time spent up to now is       20.2 secs

     End of self-consistent calculation

          k = 0.0000 0.0000 0.0000 (  5863 PWs)   bands (ev):

   -21.6339  -9.2331  -5.5353  -5.4299   0.5842   1.4563   1.6712   2.6025

          k = 0.0000 0.1458 0.0000 (  5832 PWs)   bands (ev):

   -21.3374  -8.8354  -6.5990  -6.0795   1.0906   1.9291   2.1676   3.0716

          k = 0.0000 0.2916 0.0000 (  5868 PWs)   bands (ev):

   -20.4906  -9.1314  -7.6900  -7.1517   2.5192   3.2111   3.6464   4.2780

          k = 0.0000 0.4373 0.0000 (  5914 PWs)   bands (ev):

   -19.3045 -11.6624  -8.0137  -6.0356   2.1168   4.5623   5.9382   5.9829

          k = 0.0000-0.5831 0.0000 (  5876 PWs)   bands (ev):

   -18.5810 -12.8782  -8.3294  -4.9499   0.6787   5.2298   8.3169   8.7443

          k = 0.1250-0.0729 0.0000 (  5843 PWs)   bands (ev):

   -21.3428  -8.8415  -6.6916  -5.9788   1.0861   1.9218   2.1607   3.0643

          k = 0.1250 0.2187 0.0000 (  5854 PWs)   bands (ev):

   -20.7696  -8.2661  -8.0680  -7.0574   2.0639   2.8259   3.1502   3.9439

          k = 0.1250 0.3645 0.0000 (  5899 PWs)   bands (ev):

   -19.7302 -10.4975  -8.3452  -6.6397   3.0546   3.9413   5.0886   5.1193

          k = 0.1250-0.6560 0.0000 (  5908 PWs)   bands (ev):

   -18.6504 -12.3867  -9.0393  -5.0663   1.0943   6.1179   7.5137   7.7743

          k = 0.2500-0.1458 0.0000 (  5875 PWs)   bands (ev):

   -20.5125  -9.2224  -7.7138  -7.0177   2.5021   3.1802   3.6190   4.2452

          k = 0.2500 0.0000 0.0000 (  5872 PWs)   bands (ev):

   -20.7853  -8.2785  -8.0855  -7.0337   2.0476   2.8052   3.1290   3.9233

          k = 0.2500 0.2916 0.0000 (  5896 PWs)   bands (ev):

   -19.7476 -10.5730  -8.2308  -6.6580   3.0155   3.9321   5.0662   5.0995

          k = 0.2500-0.7289 0.0000 (  5918 PWs)   bands (ev):

   -18.7295 -11.6516  -9.9470  -5.1879   1.5283   6.2676   7.2428   7.5634

          k = 0.2500-0.5831 0.0000 (  5908 PWs)   bands (ev):

   -18.1604 -12.1872 -10.6756  -4.2825   0.6082   8.4321   8.4471   9.5753

          k = 0.3750-0.2187 0.0000 (  5918 PWs)   bands (ev):

   -19.3533 -11.7283  -7.8553  -6.0869   2.0516   4.6038   5.9197   5.9614

          k = 0.3750-0.0729 0.0000 (  5888 PWs)   bands (ev):

   -19.7700 -10.5301  -8.2590  -6.6832   3.0218   3.9020   5.0333   5.0637

          k = 0.3750-0.8018 0.0000 (  5904 PWs)   bands (ev):

   -18.6980 -12.4442  -8.8978  -5.1157   1.0420   6.2522   7.5996   7.7280

          k = 0.3750-0.6560 0.0000 (  5903 PWs)   bands (ev):

   -18.1917 -12.2156 -10.6043  -4.3181   0.6003   8.4475   8.5067   9.5329

          k =-0.5000 0.2916 0.0000 (  5924 PWs)   bands (ev):

   -18.6507 -12.9222  -8.1626  -5.0229   0.6212   5.4970   8.2132   8.6568

          k =-0.5000 0.4373 0.0000 (  5894 PWs)   bands (ev):

   -18.7125 -12.4193  -8.9115  -5.1332   1.0574   6.2304   7.5820   7.6810

          k =-0.5000 0.5831 0.0000 (  5918 PWs)   bands (ev):

   -18.7710 -11.6158  -9.9363  -5.2351   1.5386   6.1969   7.1666   7.4779

     the Fermi energy is    -2.1213 ev

!    total energy              =     -39.86455719 Ry

     total all-electron energy =      -159.402703 Ry
     estimated scf accuracy    <          2.5E-12 Ry
     smearing contrib. (-TS)   =      -0.00000000 Ry
     internal energy E=F+TS    =     -39.86455719 Ry

     The total energy is F=E-TS. E is the sum of the following terms:
     one-electron contribution =    -217.92968114 Ry
     hartree contribution      =     110.71741536 Ry
     xc contribution           =      -8.78340716 Ry
     ewald contribution        =      89.31115857 Ry
     one-center paw contrib.   =     -13.18004282 Ry

     convergence has been achieved in   5 iterations

     negative rho (up, down):  1.611E-04 0.000E+00

     Forces acting on atoms (cartesian axes, Ry/au):

     atom    1 type  1   force =     0.00000000   -0.00002113    0.00000000
     atom    2 type  2   force =     0.00000000    0.00002113    0.00000000

     Total force =     0.000030     Total SCF correction =     0.000002


     Computing stress (Cartesian axis) and pressure


     negative rho (up, down):  1.611E-04 0.000E+00
          total   stress  (Ry/bohr**3)                   (kbar)     P=       -5.72
  -0.00009392   0.00000000   0.00000000          -13.82        0.00        0.00
   0.00000000  -0.00001993   0.00000000            0.00       -2.93        0.00
   0.00000000   0.00000000  -0.00000274            0.00        0.00       -0.40

     Energy error            =      4.3E-06
     Gradient error          =      2.1E-05

     bfgs converged in   3 scf cycles and   2 bfgs steps
     (criteria: energy <  1.0E-04 Ry, force <  1.0E-03 Ry/Bohr)

     End of BFGS Geometry Optimization

     Final energy   =     -39.8645571860 Ry

     File /home/aps/Programs/SimuGlue/examples/run_cij_hbn_qe/OUTDIR/hbn/run.c1_eps0.01/hbn.bfgs deleted, as requested
Begin final coordinates

ATOMIC_POSITIONS (angstrom)
B             0.0000000000        0.0013904493        0.0000000000
N             1.2698715741        0.7244756862        0.0000000000
End final coordinates



     Writing output data file /home/aps/Programs/SimuGlue/examples/run_cij_hbn_qe/OUTDIR/hbn/run.c1_eps0.01/hbn.save/

     init_run     :      1.05s CPU      1.05s WALL (       1 calls)
     electrons    :     13.58s CPU     13.75s WALL (       3 calls)
     update_pot   :      1.47s CPU      1.48s WALL (       2 calls)
     forces       :      1.76s CPU      1.76s WALL (       3 calls)
     stress       :      3.79s CPU      3.80s WALL (       3 calls)

     Called by init_run:
     wfcinit      :      0.20s CPU      0.20s WALL (       1 calls)
     potinit      :      0.30s CPU      0.30s WALL (       1 calls)
     hinit0       :      0.47s CPU      0.47s WALL (       1 calls)

     Called by electrons:
     c_bands      :      9.69s CPU      9.78s WALL (      16 calls)
     sum_band     :      2.14s CPU      2.20s WALL (      16 calls)
     v_of_rho     :      0.81s CPU      0.83s WALL (      18 calls)
     newd         :      0.69s CPU      0.69s WALL (      18 calls)
     PAW_pot      :      0.44s CPU      0.44s WALL (      20 calls)
     mix_rho      :      0.09s CPU      0.09s WALL (      16 calls)

     Called by c_bands:
     init_us_2    :      0.24s CPU      0.25s WALL (     861 calls)
     cegterg      :      9.30s CPU      9.39s WALL (     336 calls)

     Called by *egterg:
     cdiaghg      :      0.10s CPU      0.10s WALL (    1299 calls)
     h_psi        :      6.93s CPU      7.00s WALL (    1383 calls)
     s_psi        :      0.32s CPU      0.32s WALL (    1383 calls)
     g_psi        :      0.06s CPU      0.06s WALL (    1026 calls)

     Called by h_psi:
     h_psi:calbec :      0.51s CPU      0.51s WALL (    1383 calls)
     vloc_psi     :      6.07s CPU      6.13s WALL (    1383 calls)
     add_vuspsi   :      0.33s CPU      0.33s WALL (    1383 calls)

     General routines
     calbec       :      0.98s CPU      0.99s WALL (    2076 calls)
     fft          :      0.91s CPU      0.92s WALL (     306 calls)
     ffts         :      0.02s CPU      0.02s WALL (      34 calls)
     fftw         :      6.56s CPU      6.64s WALL (   17300 calls)
     interpolate  :      0.06s CPU      0.06s WALL (      18 calls)

     Parallel routines
     fft_scatt_xy :      0.66s CPU      0.67s WALL (   17640 calls)
     fft_scatt_yz :      3.42s CPU      3.46s WALL (   17640 calls)

     PWSCF        :     21.92s CPU     22.15s WALL


   This run was terminated on:  12:59: 1  12Nov2025            

=------------------------------------------------------------------------------=
   JOB DONE.
=------------------------------------------------------------------------------=
