# LAMMPS data file l_bond = 1.44568507405082 Angstrom, interlayer distance = 3.3305 Angstrom

4 atoms
0 bonds
0 angles
0 dihedrals

2 atom types
0 bond types
0 angle types
0 dihedral types

0	2.504	xlo xhi
0	2.168527611	ylo yhi
0	6.6610	zlo zhi
1.252	0	0	xy xz yz


Masses

1      10.811 # B
2      14.0067 # N

Atoms

1	1	1	1	0	0	0
2	1	2	1	1.252	0.722842537	0
3	1	2	1	0	0	3.3305
4	1	1	1	1.252	0.722842537	3.3305
