(written by ASE)

192 atoms
1 atom types

0.0      10.861899556810426  xlo xhi
0.0      16.292849335215642  ylo yhi
0.0      21.723581875629719  zlo zhi
                      0                       0                       0  xy xz yz

Atoms # atomic

     1   1 -0.00094977840521332164  -0.0014246676078202446  -0.0018995378148585142
     2   1 -0.00094977840521332164      2.7140502215947873      2.7135481966388562
     3   1      2.7145251107973927  -0.0014246676078202454      2.7135481966388562
     4   1      2.7145251107973927      2.7140502215947873  -0.0018995378148585142
     5   1      1.3567876661960898      1.3563127769934833      1.3558243294119992
     6   1      1.3567876661960898      4.0717876661960899      4.0712720638657132
     7   1      4.0722625553986971      1.3563127769934833      4.0712720638657132
     8   1      4.0722625553986971      4.0717876661960899      1.3558243294119992
     9   1      5.4299999999999997  -0.0014246676078202452  -0.0018995378148585142
    10   1      5.4299999999999997      2.7140502215947873      2.7135481966388562
    11   1      8.1454748892026068  -0.0014246676078202463      2.7135481966388562
    12   1      8.1454748892026068      2.7140502215947873  -0.0018995378148585142
    13   1      6.7877374446013041      1.3563127769934833      1.3558243294119992
    14   1      6.7877374446013041      4.0717876661960899      4.0712720638657132
    15   1      9.5032123338039103      1.3563127769934833      4.0712720638657132
    16   1      9.5032123338039103      4.0717876661960899      1.3558243294119992
    17   1 -0.00094977840521332164      5.4295251107973943  -0.0018995378148585142
    18   1 -0.00094977840521332164      8.1450000000000014      2.7135481966388562
    19   1      2.7145251107973927      5.4295251107973943      2.7135481966388562
    20   1      2.7145251107973927      8.1450000000000014  -0.0018995378148585142
    21   1      1.3567876661960898      6.7872625553986952      1.3558243294119992
    22   1      1.3567876661960898      9.5027374446013031      4.0712720638657132
    23   1      4.0722625553986971      6.7872625553986952      4.0712720638657132
    24   1      4.0722625553986971      9.5027374446013031      1.3558243294119992
    25   1      5.4299999999999997      5.4295251107973943  -0.0018995378148585142
    26   1      5.4299999999999997      8.1450000000000014      2.7135481966388562
    27   1      8.1454748892026068      5.4295251107973943      2.7135481966388562
    28   1      8.1454748892026068      8.1450000000000014  -0.0018995378148585142
    29   1      6.7877374446013041      6.7872625553986952      1.3558243294119992
    30   1      6.7877374446013041      9.5027374446013031      4.0712720638657132
    31   1      9.5032123338039103      6.7872625553986952      4.0712720638657132
    32   1      9.5032123338039103      9.5027374446013031      1.3558243294119992
    33   1 -0.00094977840521332164       10.86047488920261  -0.0018995378148585142
    34   1 -0.00094977840521332164      13.575949778405214      2.7135481966388562
    35   1      2.7145251107973927       10.86047488920261      2.7135481966388562
    36   1      2.7145251107973927      13.575949778405214  -0.0018995378148585142
    37   1      1.3567876661960898       12.21821233380391      1.3558243294119992
    38   1      1.3567876661960898      14.933687223006519      4.0712720638657132
    39   1      4.0722625553986971       12.21821233380391      4.0712720638657132
    40   1      4.0722625553986971      14.933687223006519      1.3558243294119992
    41   1      5.4299999999999997       10.86047488920261  -0.0018995378148585142
    42   1      5.4299999999999997      13.575949778405214      2.7135481966388562
    43   1      8.1454748892026068       10.86047488920261      2.7135481966388562
    44   1      8.1454748892026068      13.575949778405214  -0.0018995378148585142
    45   1      6.7877374446013041       12.21821233380391      1.3558243294119992
    46   1      6.7877374446013041      14.933687223006519      4.0712720638657132
    47   1      9.5032123338039103       12.21821233380391      4.0712720638657132
    48   1      9.5032123338039103      14.933687223006519      1.3558243294119992
    49   1 -0.00094977840521332164  -0.0014246676078202463      5.4289959310925706
    50   1 -0.00094977840521332164      2.7140502215947873      8.1444436655462873
    51   1      2.7145251107973927  -0.0014246676078202456      8.1444436655462873
    52   1      2.7145251107973927      2.7140502215947873      5.4289959310925706
    53   1      1.3567876661960898      1.3563127769934833       6.786719798319429
    54   1      1.3567876661960898      4.0717876661960899       9.502167532773143
    55   1      4.0722625553986971      1.3563127769934833       9.502167532773143
    56   1      4.0722625553986971      4.0717876661960899       6.786719798319429
    57   1      5.4299999999999997  -0.0014246676078202456      5.4289959310925706
    58   1      5.4299999999999997      2.7140502215947873      8.1444436655462873
    59   1      8.1454748892026068  -0.0014246676078202459      8.1444436655462873
    60   1      8.1454748892026068      2.7140502215947873      5.4289959310925706
    61   1      6.7877374446013041      1.3563127769934833       6.786719798319429
    62   1      6.7877374446013041      4.0717876661960899       9.502167532773143
    63   1      9.5032123338039103      1.3563127769934833       9.502167532773143
    64   1      9.5032123338039103      4.0717876661960899       6.786719798319429
    65   1 -0.00094977840521332164      5.4295251107973943      5.4289959310925706
    66   1 -0.00094977840521332164      8.1450000000000014      8.1444436655462873
    67   1      2.7145251107973927      5.4295251107973943      8.1444436655462873
    68   1      2.7145251107973927      8.1450000000000014      5.4289959310925706
    69   1      1.3567876661960898      6.7872625553986952       6.786719798319429
    70   1      1.3567876661960898      9.5027374446013031       9.502167532773143
    71   1      4.0722625553986971      6.7872625553986952       9.502167532773143
    72   1      4.0722625553986971      9.5027374446013031       6.786719798319429
    73   1      5.4299999999999997      5.4295251107973943      5.4289959310925706
    74   1      5.4299999999999997      8.1450000000000014      8.1444436655462873
    75   1      8.1454748892026068      5.4295251107973943      8.1444436655462873
    76   1      8.1454748892026068      8.1450000000000014      5.4289959310925706
    77   1      6.7877374446013041      6.7872625553986952       6.786719798319429
    78   1      6.7877374446013041      9.5027374446013031       9.502167532773143
    79   1      9.5032123338039103      6.7872625553986952       9.502167532773143
    80   1      9.5032123338039103      9.5027374446013031       6.786719798319429
    81   1 -0.00094977840521332164       10.86047488920261      5.4289959310925706
    82   1 -0.00094977840521332164      13.575949778405214      8.1444436655462873
    83   1      2.7145251107973927       10.86047488920261      8.1444436655462873
    84   1      2.7145251107973927      13.575949778405214      5.4289959310925706
    85   1      1.3567876661960898       12.21821233380391       6.786719798319429
    86   1      1.3567876661960898      14.933687223006519       9.502167532773143
    87   1      4.0722625553986971       12.21821233380391       9.502167532773143
    88   1      4.0722625553986971      14.933687223006519       6.786719798319429
    89   1      5.4299999999999997       10.86047488920261      5.4289959310925706
    90   1      5.4299999999999997      13.575949778405214      8.1444436655462873
    91   1      8.1454748892026068       10.86047488920261      8.1444436655462873
    92   1      8.1454748892026068      13.575949778405214      5.4289959310925706
    93   1      6.7877374446013041       12.21821233380391       6.786719798319429
    94   1      6.7877374446013041      14.933687223006519       9.502167532773143
    95   1      9.5032123338039103       12.21821233380391       9.502167532773143
    96   1      9.5032123338039103      14.933687223006519       6.786719798319429
    97   1 -0.00094977840521332164  -0.0014246676078202463              10.8598914
    98   1 -0.00094977840521332164      2.7140502215947873      13.575339134453719
    99   1      2.7145251107973927  -0.0014246676078202463      13.575339134453719
   100   1      2.7145251107973927      2.7140502215947873              10.8598914
   101   1      1.3567876661960898      1.3563127769934833      12.217615267226861
   102   1      1.3567876661960898      4.0717876661960899      14.933063001680571
   103   1      4.0722625553986971      1.3563127769934833      14.933063001680571
   104   1      4.0722625553986971      4.0717876661960899      12.217615267226861
   105   1      5.4299999999999997  -0.0014246676078202461              10.8598914
   106   1      5.4299999999999997      2.7140502215947873      13.575339134453719
   107   1      8.1454748892026068  -0.0014246676078202461      13.575339134453719
   108   1      8.1454748892026068      2.7140502215947873              10.8598914
   109   1      6.7877374446013041      1.3563127769934833      12.217615267226861
   110   1      6.7877374446013041      4.0717876661960899      14.933063001680571
   111   1      9.5032123338039103      1.3563127769934833      14.933063001680571
   112   1      9.5032123338039103      4.0717876661960899      12.217615267226861
   113   1 -0.00094977840521332164      5.4295251107973943              10.8598914
   114   1 -0.00094977840521332164      8.1450000000000014      13.575339134453719
   115   1      2.7145251107973927      5.4295251107973943      13.575339134453719
   116   1      2.7145251107973927      8.1450000000000014              10.8598914
   117   1      1.3567876661960898      6.7872625553986952      12.217615267226861
   118   1      1.3567876661960898      9.5027374446013031      14.933063001680571
   119   1      4.0722625553986971      6.7872625553986952      14.933063001680571
   120   1      4.0722625553986971      9.5027374446013031      12.217615267226861
   121   1      5.4299999999999997      5.4295251107973943              10.8598914
   122   1      5.4299999999999997      8.1450000000000014      13.575339134453719
   123   1      8.1454748892026068      5.4295251107973943      13.575339134453719
   124   1      8.1454748892026068      8.1450000000000014              10.8598914
   125   1      6.7877374446013041      6.7872625553986952      12.217615267226861
   126   1      6.7877374446013041      9.5027374446013031      14.933063001680571
   127   1      9.5032123338039103      6.7872625553986952      14.933063001680571
   128   1      9.5032123338039103      9.5027374446013031      12.217615267226861
   129   1 -0.00094977840521332164       10.86047488920261              10.8598914
   130   1 -0.00094977840521332164      13.575949778405214      13.575339134453719
   131   1      2.7145251107973927       10.86047488920261      13.575339134453719
   132   1      2.7145251107973927      13.575949778405214              10.8598914
   133   1      1.3567876661960898       12.21821233380391      12.217615267226861
   134   1      1.3567876661960898      14.933687223006519      14.933063001680571
   135   1      4.0722625553986971       12.21821233380391      14.933063001680571
   136   1      4.0722625553986971      14.933687223006519      12.217615267226861
   137   1      5.4299999999999997       10.86047488920261              10.8598914
   138   1      5.4299999999999997      13.575949778405214      13.575339134453719
   139   1      8.1454748892026068       10.86047488920261      13.575339134453719
   140   1      8.1454748892026068      13.575949778405214              10.8598914
   141   1      6.7877374446013041       12.21821233380391      12.217615267226861
   142   1      6.7877374446013041      14.933687223006519      14.933063001680571
   143   1      9.5032123338039103       12.21821233380391      14.933063001680571
   144   1      9.5032123338039103      14.933687223006519      12.217615267226861
   145   1 -0.00094977840521332164  -0.0014246676078202459      16.290786868907432
   146   1 -0.00094977840521332164      2.7140502215947873      19.006234603361147
   147   1      2.7145251107973927  -0.0014246676078202465      19.006234603361147
   148   1      2.7145251107973927      2.7140502215947873      16.290786868907432
   149   1      1.3567876661960898      1.3563127769934833      17.648510736134288
   150   1      1.3567876661960898      4.0717876661960899      20.363958470587999
   151   1      4.0722625553986971      1.3563127769934833      20.363958470587999
   152   1      4.0722625553986971      4.0717876661960899      17.648510736134288
   153   1      5.4299999999999997  -0.0014246676078202463      16.290786868907432
   154   1      5.4299999999999997      2.7140502215947873      19.006234603361147
   155   1      8.1454748892026068  -0.0014246676078202456      19.006234603361147
   156   1      8.1454748892026068      2.7140502215947873      16.290786868907432
   157   1      6.7877374446013041      1.3563127769934833      17.648510736134288
   158   1      6.7877374446013041      4.0717876661960899      20.363958470587999
   159   1      9.5032123338039103      1.3563127769934833      20.363958470587999
   160   1      9.5032123338039103      4.0717876661960899      17.648510736134288
   161   1 -0.00094977840521332164      5.4295251107973943      16.290786868907432
   162   1 -0.00094977840521332164      8.1450000000000014      19.006234603361147
   163   1      2.7145251107973927      5.4295251107973943      19.006234603361147
   164   1      2.7145251107973927      8.1450000000000014      16.290786868907432
   165   1      1.3567876661960898      6.7872625553986952      17.648510736134288
   166   1      1.3567876661960898      9.5027374446013031      20.363958470587999
   167   1      4.0722625553986971      6.7872625553986952      20.363958470587999
   168   1      4.0722625553986971      9.5027374446013031      17.648510736134288
   169   1      5.4299999999999997      5.4295251107973943      16.290786868907432
   170   1      5.4299999999999997      8.1450000000000014      19.006234603361147
   171   1      8.1454748892026068      5.4295251107973943      19.006234603361147
   172   1      8.1454748892026068      8.1450000000000014      16.290786868907432
   173   1      6.7877374446013041      6.7872625553986952      17.648510736134288
   174   1      6.7877374446013041      9.5027374446013031      20.363958470587999
   175   1      9.5032123338039103      6.7872625553986952      20.363958470587999
   176   1      9.5032123338039103      9.5027374446013031      17.648510736134288
   177   1 -0.00094977840521332164       10.86047488920261      16.290786868907432
   178   1 -0.00094977840521332164      13.575949778405214      19.006234603361147
   179   1      2.7145251107973927       10.86047488920261      19.006234603361147
   180   1      2.7145251107973927      13.575949778405214      16.290786868907432
   181   1      1.3567876661960898       12.21821233380391      17.648510736134288
   182   1      1.3567876661960898      14.933687223006519      20.363958470587999
   183   1      4.0722625553986971       12.21821233380391      20.363958470587999
   184   1      4.0722625553986971      14.933687223006519      17.648510736134288
   185   1      5.4299999999999997       10.86047488920261      16.290786868907432
   186   1      5.4299999999999997      13.575949778405214      19.006234603361147
   187   1      8.1454748892026068       10.86047488920261      19.006234603361147
   188   1      8.1454748892026068      13.575949778405214      16.290786868907432
   189   1      6.7877374446013041       12.21821233380391      17.648510736134288
   190   1      6.7877374446013041      14.933687223006519      20.363958470587999
   191   1      9.5032123338039103       12.21821233380391      20.363958470587999
   192   1      9.5032123338039103      14.933687223006519      17.648510736134288
