ITEM: TIMESTEP
0
ITEM: NUMBER OF ATOMS
1000    
ITEM: BOX BOUNDS pp pp pp
0.000000000      28.201000000    
0.000000000      28.201000000    
0.000000000      28.201000000    
ITEM: ATOMS id mol type xu yu zu
1 1 1 0.000000 0.000000 0.000000
2 1 1 2.820100 2.820100 0.000000
3 1 1 0.000000 2.820100 2.820100
4 1 1 2.820100 0.000000 2.820100
5 1 2 2.820100 0.000000 0.000000
6 1 2 0.000000 2.820100 0.000000
7 1 2 0.000000 0.000000 2.820100
8 1 2 2.820100 2.820100 2.820100
9 1 1 5.640200 0.000000 0.000000
10 1 1 8.460300 2.820100 0.000000
11 1 1 5.640200 2.820100 2.820100
12 1 1 8.460300 0.000000 2.820100
13 1 2 8.460300 0.000000 0.000000
14 1 2 5.640200 2.820100 0.000000
15 1 2 5.640200 0.000000 2.820100
16 1 2 8.460300 2.820100 2.820100
17 1 1 11.280400 0.000000 0.000000
18 1 1 14.100500 2.820100 0.000000
19 1 1 11.280400 2.820100 2.820100
20 1 1 14.100500 0.000000 2.820100
21 1 2 14.100500 0.000000 0.000000
22 1 2 11.280400 2.820100 0.000000
23 1 2 11.280400 0.000000 2.820100
24 1 2 14.100500 2.820100 2.820100
25 1 1 16.920600 0.000000 0.000000
26 1 1 19.740700 2.820100 0.000000
27 1 1 16.920600 2.820100 2.820100
28 1 1 19.740700 0.000000 2.820100
29 1 2 19.740700 0.000000 0.000000
30 1 2 16.920600 2.820100 0.000000
31 1 2 16.920600 0.000000 2.820100
32 1 2 19.740700 2.820100 2.820100
33 1 1 22.560800 0.000000 0.000000
34 1 1 25.380900 2.820100 0.000000
35 1 1 22.560800 2.820100 2.820100
36 1 1 25.380900 0.000000 2.820100
37 1 2 25.380900 0.000000 0.000000
38 1 2 22.560800 2.820100 0.000000
39 1 2 22.560800 0.000000 2.820100
40 1 2 25.380900 2.820100 2.820100
41 1 1 0.000000 5.640200 0.000000
42 1 1 2.820100 8.460300 0.000000
43 1 1 0.000000 8.460300 2.820100
44 1 1 2.820100 5.640200 2.820100
45 1 2 2.820100 5.640200 0.000000
46 1 2 0.000000 8.460300 0.000000
47 1 2 0.000000 5.640200 2.820100
48 1 2 2.820100 8.460300 2.820100
49 1 1 5.640200 5.640200 0.000000
50 1 1 8.460300 8.460300 0.000000
51 1 1 5.640200 8.460300 2.820100
52 1 1 8.460300 5.640200 2.820100
53 1 2 8.460300 5.640200 0.000000
54 1 2 5.640200 8.460300 0.000000
55 1 2 5.640200 5.640200 2.820100
56 1 2 8.460300 8.460300 2.820100
57 1 1 11.280400 5.640200 0.000000
58 1 1 14.100500 8.460300 0.000000
59 1 1 11.280400 8.460300 2.820100
60 1 1 14.100500 5.640200 2.820100
61 1 2 14.100500 5.640200 0.000000
62 1 2 11.280400 8.460300 0.000000
63 1 2 11.280400 5.640200 2.820100
64 1 2 14.100500 8.460300 2.820100
65 1 1 16.920600 5.640200 0.000000
66 1 1 19.740700 8.460300 0.000000
67 1 1 16.920600 8.460300 2.820100
68 1 1 19.740700 5.640200 2.820100
69 1 2 19.740700 5.640200 0.000000
70 1 2 16.920600 8.460300 0.000000
71 1 2 16.920600 5.640200 2.820100
72 1 2 19.740700 8.460300 2.820100
73 1 1 22.560800 5.640200 0.000000
74 1 1 25.380900 8.460300 0.000000
75 1 1 22.560800 8.460300 2.820100
76 1 1 25.380900 5.640200 2.820100
77 1 2 25.380900 5.640200 0.000000
78 1 2 22.560800 8.460300 0.000000
79 1 2 22.560800 5.640200 2.820100
80 1 2 25.380900 8.460300 2.820100
81 1 1 0.000000 11.280400 0.000000
82 1 1 2.820100 14.100500 0.000000
83 1 1 0.000000 14.100500 2.820100
84 1 1 2.820100 11.280400 2.820100
85 1 2 2.820100 11.280400 0.000000
86 1 2 0.000000 14.100500 0.000000
87 1 2 0.000000 11.280400 2.820100
88 1 2 2.820100 14.100500 2.820100
89 1 1 5.640200 11.280400 0.000000
90 1 1 8.460300 14.100500 0.000000
91 1 1 5.640200 14.100500 2.820100
92 1 1 8.460300 11.280400 2.820100
93 1 2 8.460300 11.280400 0.000000
94 1 2 5.640200 14.100500 0.000000
95 1 2 5.640200 11.280400 2.820100
96 1 2 8.460300 14.100500 2.820100
97 1 1 11.280400 11.280400 0.000000
98 1 1 14.100500 14.100500 0.000000
99 1 1 11.280400 14.100500 2.820100
100 1 1 14.100500 11.280400 2.820100
101 1 2 14.100500 11.280400 0.000000
102 1 2 11.280400 14.100500 0.000000
103 1 2 11.280400 11.280400 2.820100
104 1 2 14.100500 14.100500 2.820100
105 1 1 16.920600 11.280400 0.000000
106 1 1 19.740700 14.100500 0.000000
107 1 1 16.920600 14.100500 2.820100
108 1 1 19.740700 11.280400 2.820100
109 1 2 19.740700 11.280400 0.000000
110 1 2 16.920600 14.100500 0.000000
111 1 2 16.920600 11.280400 2.820100
112 1 2 19.740700 14.100500 2.820100
113 1 1 22.560800 11.280400 0.000000
114 1 1 25.380900 14.100500 0.000000
115 1 1 22.560800 14.100500 2.820100
116 1 1 25.380900 11.280400 2.820100
117 1 2 25.380900 11.280400 0.000000
118 1 2 22.560800 14.100500 0.000000
119 1 2 22.560800 11.280400 2.820100
120 1 2 25.380900 14.100500 2.820100
121 1 1 0.000000 16.920600 0.000000
122 1 1 2.820100 19.740700 0.000000
123 1 1 0.000000 19.740700 2.820100
124 1 1 2.820100 16.920600 2.820100
125 1 2 2.820100 16.920600 0.000000
126 1 2 0.000000 19.740700 0.000000
127 1 2 0.000000 16.920600 2.820100
128 1 2 2.820100 19.740700 2.820100
129 1 1 5.640200 16.920600 0.000000
130 1 1 8.460300 19.740700 0.000000
131 1 1 5.640200 19.740700 2.820100
132 1 1 8.460300 16.920600 2.820100
133 1 2 8.460300 16.920600 0.000000
134 1 2 5.640200 19.740700 0.000000
135 1 2 5.640200 16.920600 2.820100
136 1 2 8.460300 19.740700 2.820100
137 1 1 11.280400 16.920600 0.000000
138 1 1 14.100500 19.740700 0.000000
139 1 1 11.280400 19.740700 2.820100
140 1 1 14.100500 16.920600 2.820100
141 1 2 14.100500 16.920600 0.000000
142 1 2 11.280400 19.740700 0.000000
143 1 2 11.280400 16.920600 2.820100
144 1 2 14.100500 19.740700 2.820100
145 1 1 16.920600 16.920600 0.000000
146 1 1 19.740700 19.740700 0.000000
147 1 1 16.920600 19.740700 2.820100
148 1 1 19.740700 16.920600 2.820100
149 1 2 19.740700 16.920600 0.000000
150 1 2 16.920600 19.740700 0.000000
151 1 2 16.920600 16.920600 2.820100
152 1 2 19.740700 19.740700 2.820100
153 1 1 22.560800 16.920600 0.000000
154 1 1 25.380900 19.740700 0.000000
155 1 1 22.560800 19.740700 2.820100
156 1 1 25.380900 16.920600 2.820100
157 1 2 25.380900 16.920600 0.000000
158 1 2 22.560800 19.740700 0.000000
159 1 2 22.560800 16.920600 2.820100
160 1 2 25.380900 19.740700 2.820100
161 1 1 0.000000 22.560800 0.000000
162 1 1 2.820100 25.380900 0.000000
163 1 1 0.000000 25.380900 2.820100
164 1 1 2.820100 22.560800 2.820100
165 1 2 2.820100 22.560800 0.000000
166 1 2 0.000000 25.380900 0.000000
167 1 2 0.000000 22.560800 2.820100
168 1 2 2.820100 25.380900 2.820100
169 1 1 5.640200 22.560800 0.000000
170 1 1 8.460300 25.380900 0.000000
171 1 1 5.640200 25.380900 2.820100
172 1 1 8.460300 22.560800 2.820100
173 1 2 8.460300 22.560800 0.000000
174 1 2 5.640200 25.380900 0.000000
175 1 2 5.640200 22.560800 2.820100
176 1 2 8.460300 25.380900 2.820100
177 1 1 11.280400 22.560800 0.000000
178 1 1 14.100500 25.380900 0.000000
179 1 1 11.280400 25.380900 2.820100
180 1 1 14.100500 22.560800 2.820100
181 1 2 14.100500 22.560800 0.000000
182 1 2 11.280400 25.380900 0.000000
183 1 2 11.280400 22.560800 2.820100
184 1 2 14.100500 25.380900 2.820100
185 1 1 16.920600 22.560800 0.000000
186 1 1 19.740700 25.380900 0.000000
187 1 1 16.920600 25.380900 2.820100
188 1 1 19.740700 22.560800 2.820100
189 1 2 19.740700 22.560800 0.000000
190 1 2 16.920600 25.380900 0.000000
191 1 2 16.920600 22.560800 2.820100
192 1 2 19.740700 25.380900 2.820100
193 1 1 22.560800 22.560800 0.000000
194 1 1 25.380900 25.380900 0.000000
195 1 1 22.560800 25.380900 2.820100
196 1 1 25.380900 22.560800 2.820100
197 1 2 25.380900 22.560800 0.000000
198 1 2 22.560800 25.380900 0.000000
199 1 2 22.560800 22.560800 2.820100
200 1 2 25.380900 25.380900 2.820100
201 1 1 0.000000 0.000000 5.640200
202 1 1 2.820100 2.820100 5.640200
203 1 1 0.000000 2.820100 8.460300
204 1 1 2.820100 0.000000 8.460300
205 1 2 2.820100 0.000000 5.640200
206 1 2 0.000000 2.820100 5.640200
207 1 2 0.000000 0.000000 8.460300
208 1 2 2.820100 2.820100 8.460300
209 1 1 5.640200 0.000000 5.640200
210 1 1 8.460300 2.820100 5.640200
211 1 1 5.640200 2.820100 8.460300
212 1 1 8.460300 0.000000 8.460300
213 1 2 8.460300 0.000000 5.640200
214 1 2 5.640200 2.820100 5.640200
215 1 2 5.640200 0.000000 8.460300
216 1 2 8.460300 2.820100 8.460300
217 1 1 11.280400 0.000000 5.640200
218 1 1 14.100500 2.820100 5.640200
219 1 1 11.280400 2.820100 8.460300
220 1 1 14.100500 0.000000 8.460300
221 1 2 14.100500 0.000000 5.640200
222 1 2 11.280400 2.820100 5.640200
223 1 2 11.280400 0.000000 8.460300
224 1 2 14.100500 2.820100 8.460300
225 1 1 16.920600 0.000000 5.640200
226 1 1 19.740700 2.820100 5.640200
227 1 1 16.920600 2.820100 8.460300
228 1 1 19.740700 0.000000 8.460300
229 1 2 19.740700 0.000000 5.640200
230 1 2 16.920600 2.820100 5.640200
231 1 2 16.920600 0.000000 8.460300
232 1 2 19.740700 2.820100 8.460300
233 1 1 22.560800 0.000000 5.640200
234 1 1 25.380900 2.820100 5.640200
235 1 1 22.560800 2.820100 8.460300
236 1 1 25.380900 0.000000 8.460300
237 1 2 25.380900 0.000000 5.640200
238 1 2 22.560800 2.820100 5.640200
239 1 2 22.560800 0.000000 8.460300
240 1 2 25.380900 2.820100 8.460300
241 1 1 0.000000 5.640200 5.640200
242 1 1 2.820100 8.460300 5.640200
243 1 1 0.000000 8.460300 8.460300
244 1 1 2.820100 5.640200 8.460300
245 1 2 2.820100 5.640200 5.640200
246 1 2 0.000000 8.460300 5.640200
247 1 2 0.000000 5.640200 8.460300
248 1 2 2.820100 8.460300 8.460300
249 1 1 5.640200 5.640200 5.640200
250 1 1 8.460300 8.460300 5.640200
251 1 1 5.640200 8.460300 8.460300
252 1 1 8.460300 5.640200 8.460300
253 1 2 8.460300 5.640200 5.640200
254 1 2 5.640200 8.460300 5.640200
255 1 2 5.640200 5.640200 8.460300
256 1 2 8.460300 8.460300 8.460300
257 1 1 11.280400 5.640200 5.640200
258 1 1 14.100500 8.460300 5.640200
259 1 1 11.280400 8.460300 8.460300
260 1 1 14.100500 5.640200 8.460300
261 1 2 14.100500 5.640200 5.640200
262 1 2 11.280400 8.460300 5.640200
263 1 2 11.280400 5.640200 8.460300
264 1 2 14.100500 8.460300 8.460300
265 1 1 16.920600 5.640200 5.640200
266 1 1 19.740700 8.460300 5.640200
267 1 1 16.920600 8.460300 8.460300
268 1 1 19.740700 5.640200 8.460300
269 1 2 19.740700 5.640200 5.640200
270 1 2 16.920600 8.460300 5.640200
271 1 2 16.920600 5.640200 8.460300
272 1 2 19.740700 8.460300 8.460300
273 1 1 22.560800 5.640200 5.640200
274 1 1 25.380900 8.460300 5.640200
275 1 1 22.560800 8.460300 8.460300
276 1 1 25.380900 5.640200 8.460300
277 1 2 25.380900 5.640200 5.640200
278 1 2 22.560800 8.460300 5.640200
279 1 2 22.560800 5.640200 8.460300
280 1 2 25.380900 8.460300 8.460300
281 1 1 0.000000 11.280400 5.640200
282 1 1 2.820100 14.100500 5.640200
283 1 1 0.000000 14.100500 8.460300
284 1 1 2.820100 11.280400 8.460300
285 1 2 2.820100 11.280400 5.640200
286 1 2 0.000000 14.100500 5.640200
287 1 2 0.000000 11.280400 8.460300
288 1 2 2.820100 14.100500 8.460300
289 1 1 5.640200 11.280400 5.640200
290 1 1 8.460300 14.100500 5.640200
291 1 1 5.640200 14.100500 8.460300
292 1 1 8.460300 11.280400 8.460300
293 1 2 8.460300 11.280400 5.640200
294 1 2 5.640200 14.100500 5.640200
295 1 2 5.640200 11.280400 8.460300
296 1 2 8.460300 14.100500 8.460300
297 1 1 11.280400 11.280400 5.640200
298 1 1 14.100500 14.100500 5.640200
299 1 1 11.280400 14.100500 8.460300
300 1 1 14.100500 11.280400 8.460300
301 1 2 14.100500 11.280400 5.640200
302 1 2 11.280400 14.100500 5.640200
303 1 2 11.280400 11.280400 8.460300
304 1 2 14.100500 14.100500 8.460300
305 1 1 16.920600 11.280400 5.640200
306 1 1 19.740700 14.100500 5.640200
307 1 1 16.920600 14.100500 8.460300
308 1 1 19.740700 11.280400 8.460300
309 1 2 19.740700 11.280400 5.640200
310 1 2 16.920600 14.100500 5.640200
311 1 2 16.920600 11.280400 8.460300
312 1 2 19.740700 14.100500 8.460300
313 1 1 22.560800 11.280400 5.640200
314 1 1 25.380900 14.100500 5.640200
315 1 1 22.560800 14.100500 8.460300
316 1 1 25.380900 11.280400 8.460300
317 1 2 25.380900 11.280400 5.640200
318 1 2 22.560800 14.100500 5.640200
319 1 2 22.560800 11.280400 8.460300
320 1 2 25.380900 14.100500 8.460300
321 1 1 0.000000 16.920600 5.640200
322 1 1 2.820100 19.740700 5.640200
323 1 1 0.000000 19.740700 8.460300
324 1 1 2.820100 16.920600 8.460300
325 1 2 2.820100 16.920600 5.640200
326 1 2 0.000000 19.740700 5.640200
327 1 2 0.000000 16.920600 8.460300
328 1 2 2.820100 19.740700 8.460300
329 1 1 5.640200 16.920600 5.640200
330 1 1 8.460300 19.740700 5.640200
331 1 1 5.640200 19.740700 8.460300
332 1 1 8.460300 16.920600 8.460300
333 1 2 8.460300 16.920600 5.640200
334 1 2 5.640200 19.740700 5.640200
335 1 2 5.640200 16.920600 8.460300
336 1 2 8.460300 19.740700 8.460300
337 1 1 11.280400 16.920600 5.640200
338 1 1 14.100500 19.740700 5.640200
339 1 1 11.280400 19.740700 8.460300
340 1 1 14.100500 16.920600 8.460300
341 1 2 14.100500 16.920600 5.640200
342 1 2 11.280400 19.740700 5.640200
343 1 2 11.280400 16.920600 8.460300
344 1 2 14.100500 19.740700 8.460300
345 1 1 16.920600 16.920600 5.640200
346 1 1 19.740700 19.740700 5.640200
347 1 1 16.920600 19.740700 8.460300
348 1 1 19.740700 16.920600 8.460300
349 1 2 19.740700 16.920600 5.640200
350 1 2 16.920600 19.740700 5.640200
351 1 2 16.920600 16.920600 8.460300
352 1 2 19.740700 19.740700 8.460300
353 1 1 22.560800 16.920600 5.640200
354 1 1 25.380900 19.740700 5.640200
355 1 1 22.560800 19.740700 8.460300
356 1 1 25.380900 16.920600 8.460300
357 1 2 25.380900 16.920600 5.640200
358 1 2 22.560800 19.740700 5.640200
359 1 2 22.560800 16.920600 8.460300
360 1 2 25.380900 19.740700 8.460300
361 1 1 0.000000 22.560800 5.640200
362 1 1 2.820100 25.380900 5.640200
363 1 1 0.000000 25.380900 8.460300
364 1 1 2.820100 22.560800 8.460300
365 1 2 2.820100 22.560800 5.640200
366 1 2 0.000000 25.380900 5.640200
367 1 2 0.000000 22.560800 8.460300
368 1 2 2.820100 25.380900 8.460300
369 1 1 5.640200 22.560800 5.640200
370 1 1 8.460300 25.380900 5.640200
371 1 1 5.640200 25.380900 8.460300
372 1 1 8.460300 22.560800 8.460300
373 1 2 8.460300 22.560800 5.640200
374 1 2 5.640200 25.380900 5.640200
375 1 2 5.640200 22.560800 8.460300
376 1 2 8.460300 25.380900 8.460300
377 1 1 11.280400 22.560800 5.640200
378 1 1 14.100500 25.380900 5.640200
379 1 1 11.280400 25.380900 8.460300
380 1 1 14.100500 22.560800 8.460300
381 1 2 14.100500 22.560800 5.640200
382 1 2 11.280400 25.380900 5.640200
383 1 2 11.280400 22.560800 8.460300
384 1 2 14.100500 25.380900 8.460300
385 1 1 16.920600 22.560800 5.640200
386 1 1 19.740700 25.380900 5.640200
387 1 1 16.920600 25.380900 8.460300
388 1 1 19.740700 22.560800 8.460300
389 1 2 19.740700 22.560800 5.640200
390 1 2 16.920600 25.380900 5.640200
391 1 2 16.920600 22.560800 8.460300
392 1 2 19.740700 25.380900 8.460300
393 1 1 22.560800 22.560800 5.640200
394 1 1 25.380900 25.380900 5.640200
395 1 1 22.560800 25.380900 8.460300
396 1 1 25.380900 22.560800 8.460300
397 1 2 25.380900 22.560800 5.640200
398 1 2 22.560800 25.380900 5.640200
399 1 2 22.560800 22.560800 8.460300
400 1 2 25.380900 25.380900 8.460300
401 1 1 0.000000 0.000000 11.280400
402 1 1 2.820100 2.820100 11.280400
403 1 1 0.000000 2.820100 14.100500
404 1 1 2.820100 0.000000 14.100500
405 1 2 2.820100 0.000000 11.280400
406 1 2 0.000000 2.820100 11.280400
407 1 2 0.000000 0.000000 14.100500
408 1 2 2.820100 2.820100 14.100500
409 1 1 5.640200 0.000000 11.280400
410 1 1 8.460300 2.820100 11.280400
411 1 1 5.640200 2.820100 14.100500
412 1 1 8.460300 0.000000 14.100500
413 1 2 8.460300 0.000000 11.280400
414 1 2 5.640200 2.820100 11.280400
415 1 2 5.640200 0.000000 14.100500
416 1 2 8.460300 2.820100 14.100500
417 1 1 11.280400 0.000000 11.280400
418 1 1 14.100500 2.820100 11.280400
419 1 1 11.280400 2.820100 14.100500
420 1 1 14.100500 0.000000 14.100500
421 1 2 14.100500 0.000000 11.280400
422 1 2 11.280400 2.820100 11.280400
423 1 2 11.280400 0.000000 14.100500
424 1 2 14.100500 2.820100 14.100500
425 1 1 16.920600 0.000000 11.280400
426 1 1 19.740700 2.820100 11.280400
427 1 1 16.920600 2.820100 14.100500
428 1 1 19.740700 0.000000 14.100500
429 1 2 19.740700 0.000000 11.280400
430 1 2 16.920600 2.820100 11.280400
431 1 2 16.920600 0.000000 14.100500
432 1 2 19.740700 2.820100 14.100500
433 1 1 22.560800 0.000000 11.280400
434 1 1 25.380900 2.820100 11.280400
435 1 1 22.560800 2.820100 14.100500
436 1 1 25.380900 0.000000 14.100500
437 1 2 25.380900 0.000000 11.280400
438 1 2 22.560800 2.820100 11.280400
439 1 2 22.560800 0.000000 14.100500
440 1 2 25.380900 2.820100 14.100500
441 1 1 0.000000 5.640200 11.280400
442 1 1 2.820100 8.460300 11.280400
443 1 1 0.000000 8.460300 14.100500
444 1 1 2.820100 5.640200 14.100500
445 1 2 2.820100 5.640200 11.280400
446 1 2 0.000000 8.460300 11.280400
447 1 2 0.000000 5.640200 14.100500
448 1 2 2.820100 8.460300 14.100500
449 1 1 5.640200 5.640200 11.280400
450 1 1 8.460300 8.460300 11.280400
451 1 1 5.640200 8.460300 14.100500
452 1 1 8.460300 5.640200 14.100500
453 1 2 8.460300 5.640200 11.280400
454 1 2 5.640200 8.460300 11.280400
455 1 2 5.640200 5.640200 14.100500
456 1 2 8.460300 8.460300 14.100500
457 1 1 11.280400 5.640200 11.280400
458 1 1 14.100500 8.460300 11.280400
459 1 1 11.280400 8.460300 14.100500
460 1 1 14.100500 5.640200 14.100500
461 1 2 14.100500 5.640200 11.280400
462 1 2 11.280400 8.460300 11.280400
463 1 2 11.280400 5.640200 14.100500
464 1 2 14.100500 8.460300 14.100500
465 1 1 16.920600 5.640200 11.280400
466 1 1 19.740700 8.460300 11.280400
467 1 1 16.920600 8.460300 14.100500
468 1 1 19.740700 5.640200 14.100500
469 1 2 19.740700 5.640200 11.280400
470 1 2 16.920600 8.460300 11.280400
471 1 2 16.920600 5.640200 14.100500
472 1 2 19.740700 8.460300 14.100500
473 1 1 22.560800 5.640200 11.280400
474 1 1 25.380900 8.460300 11.280400
475 1 1 22.560800 8.460300 14.100500
476 1 1 25.380900 5.640200 14.100500
477 1 2 25.380900 5.640200 11.280400
478 1 2 22.560800 8.460300 11.280400
479 1 2 22.560800 5.640200 14.100500
480 1 2 25.380900 8.460300 14.100500
481 1 1 0.000000 11.280400 11.280400
482 1 1 2.820100 14.100500 11.280400
483 1 1 0.000000 14.100500 14.100500
484 1 1 2.820100 11.280400 14.100500
485 1 2 2.820100 11.280400 11.280400
486 1 2 0.000000 14.100500 11.280400
487 1 2 0.000000 11.280400 14.100500
488 1 2 2.820100 14.100500 14.100500
489 1 1 5.640200 11.280400 11.280400
490 1 1 8.460300 14.100500 11.280400
491 1 1 5.640200 14.100500 14.100500
492 1 1 8.460300 11.280400 14.100500
493 1 2 8.460300 11.280400 11.280400
494 1 2 5.640200 14.100500 11.280400
495 1 2 5.640200 11.280400 14.100500
496 1 2 8.460300 14.100500 14.100500
497 1 1 11.280400 11.280400 11.280400
498 1 1 14.100500 14.100500 11.280400
499 1 1 11.280400 14.100500 14.100500
500 1 1 14.100500 11.280400 14.100500
501 1 2 14.100500 11.280400 11.280400
502 1 2 11.280400 14.100500 11.280400
503 1 2 11.280400 11.280400 14.100500
504 1 2 14.100500 14.100500 14.100500
505 1 1 16.920600 11.280400 11.280400
506 1 1 19.740700 14.100500 11.280400
507 1 1 16.920600 14.100500 14.100500
508 1 1 19.740700 11.280400 14.100500
509 1 2 19.740700 11.280400 11.280400
510 1 2 16.920600 14.100500 11.280400
511 1 2 16.920600 11.280400 14.100500
512 1 2 19.740700 14.100500 14.100500
513 1 1 22.560800 11.280400 11.280400
514 1 1 25.380900 14.100500 11.280400
515 1 1 22.560800 14.100500 14.100500
516 1 1 25.380900 11.280400 14.100500
517 1 2 25.380900 11.280400 11.280400
518 1 2 22.560800 14.100500 11.280400
519 1 2 22.560800 11.280400 14.100500
520 1 2 25.380900 14.100500 14.100500
521 1 1 0.000000 16.920600 11.280400
522 1 1 2.820100 19.740700 11.280400
523 1 1 0.000000 19.740700 14.100500
524 1 1 2.820100 16.920600 14.100500
525 1 2 2.820100 16.920600 11.280400
526 1 2 0.000000 19.740700 11.280400
527 1 2 0.000000 16.920600 14.100500
528 1 2 2.820100 19.740700 14.100500
529 1 1 5.640200 16.920600 11.280400
530 1 1 8.460300 19.740700 11.280400
531 1 1 5.640200 19.740700 14.100500
532 1 1 8.460300 16.920600 14.100500
533 1 2 8.460300 16.920600 11.280400
534 1 2 5.640200 19.740700 11.280400
535 1 2 5.640200 16.920600 14.100500
536 1 2 8.460300 19.740700 14.100500
537 1 1 11.280400 16.920600 11.280400
538 1 1 14.100500 19.740700 11.280400
539 1 1 11.280400 19.740700 14.100500
540 1 1 14.100500 16.920600 14.100500
541 1 2 14.100500 16.920600 11.280400
542 1 2 11.280400 19.740700 11.280400
543 1 2 11.280400 16.920600 14.100500
544 1 2 14.100500 19.740700 14.100500
545 1 1 16.920600 16.920600 11.280400
546 1 1 19.740700 19.740700 11.280400
547 1 1 16.920600 19.740700 14.100500
548 1 1 19.740700 16.920600 14.100500
549 1 2 19.740700 16.920600 11.280400
550 1 2 16.920600 19.740700 11.280400
551 1 2 16.920600 16.920600 14.100500
552 1 2 19.740700 19.740700 14.100500
553 1 1 22.560800 16.920600 11.280400
554 1 1 25.380900 19.740700 11.280400
555 1 1 22.560800 19.740700 14.100500
556 1 1 25.380900 16.920600 14.100500
557 1 2 25.380900 16.920600 11.280400
558 1 2 22.560800 19.740700 11.280400
559 1 2 22.560800 16.920600 14.100500
560 1 2 25.380900 19.740700 14.100500
561 1 1 0.000000 22.560800 11.280400
562 1 1 2.820100 25.380900 11.280400
563 1 1 0.000000 25.380900 14.100500
564 1 1 2.820100 22.560800 14.100500
565 1 2 2.820100 22.560800 11.280400
566 1 2 0.000000 25.380900 11.280400
567 1 2 0.000000 22.560800 14.100500
568 1 2 2.820100 25.380900 14.100500
569 1 1 5.640200 22.560800 11.280400
570 1 1 8.460300 25.380900 11.280400
571 1 1 5.640200 25.380900 14.100500
572 1 1 8.460300 22.560800 14.100500
573 1 2 8.460300 22.560800 11.280400
574 1 2 5.640200 25.380900 11.280400
575 1 2 5.640200 22.560800 14.100500
576 1 2 8.460300 25.380900 14.100500
577 1 1 11.280400 22.560800 11.280400
578 1 1 14.100500 25.380900 11.280400
579 1 1 11.280400 25.380900 14.100500
580 1 1 14.100500 22.560800 14.100500
581 1 2 14.100500 22.560800 11.280400
582 1 2 11.280400 25.380900 11.280400
583 1 2 11.280400 22.560800 14.100500
584 1 2 14.100500 25.380900 14.100500
585 1 1 16.920600 22.560800 11.280400
586 1 1 19.740700 25.380900 11.280400
587 1 1 16.920600 25.380900 14.100500
588 1 1 19.740700 22.560800 14.100500
589 1 2 19.740700 22.560800 11.280400
590 1 2 16.920600 25.380900 11.280400
591 1 2 16.920600 22.560800 14.100500
592 1 2 19.740700 25.380900 14.100500
593 1 1 22.560800 22.560800 11.280400
594 1 1 25.380900 25.380900 11.280400
595 1 1 22.560800 25.380900 14.100500
596 1 1 25.380900 22.560800 14.100500
597 1 2 25.380900 22.560800 11.280400
598 1 2 22.560800 25.380900 11.280400
599 1 2 22.560800 22.560800 14.100500
600 1 2 25.380900 25.380900 14.100500
601 1 1 0.000000 0.000000 16.920600
602 1 1 2.820100 2.820100 16.920600
603 1 1 0.000000 2.820100 19.740700
604 1 1 2.820100 0.000000 19.740700
605 1 2 2.820100 0.000000 16.920600
606 1 2 0.000000 2.820100 16.920600
607 1 2 0.000000 0.000000 19.740700
608 1 2 2.820100 2.820100 19.740700
609 1 1 5.640200 0.000000 16.920600
610 1 1 8.460300 2.820100 16.920600
611 1 1 5.640200 2.820100 19.740700
612 1 1 8.460300 0.000000 19.740700
613 1 2 8.460300 0.000000 16.920600
614 1 2 5.640200 2.820100 16.920600
615 1 2 5.640200 0.000000 19.740700
616 1 2 8.460300 2.820100 19.740700
617 1 1 11.280400 0.000000 16.920600
618 1 1 14.100500 2.820100 16.920600
619 1 1 11.280400 2.820100 19.740700
620 1 1 14.100500 0.000000 19.740700
621 1 2 14.100500 0.000000 16.920600
622 1 2 11.280400 2.820100 16.920600
623 1 2 11.280400 0.000000 19.740700
624 1 2 14.100500 2.820100 19.740700
625 1 1 16.920600 0.000000 16.920600
626 1 1 19.740700 2.820100 16.920600
627 1 1 16.920600 2.820100 19.740700
628 1 1 19.740700 0.000000 19.740700
629 1 2 19.740700 0.000000 16.920600
630 1 2 16.920600 2.820100 16.920600
631 1 2 16.920600 0.000000 19.740700
632 1 2 19.740700 2.820100 19.740700
633 1 1 22.560800 0.000000 16.920600
634 1 1 25.380900 2.820100 16.920600
635 1 1 22.560800 2.820100 19.740700
636 1 1 25.380900 0.000000 19.740700
637 1 2 25.380900 0.000000 16.920600
638 1 2 22.560800 2.820100 16.920600
639 1 2 22.560800 0.000000 19.740700
640 1 2 25.380900 2.820100 19.740700
641 1 1 0.000000 5.640200 16.920600
642 1 1 2.820100 8.460300 16.920600
643 1 1 0.000000 8.460300 19.740700
644 1 1 2.820100 5.640200 19.740700
645 1 2 2.820100 5.640200 16.920600
646 1 2 0.000000 8.460300 16.920600
647 1 2 0.000000 5.640200 19.740700
648 1 2 2.820100 8.460300 19.740700
649 1 1 5.640200 5.640200 16.920600
650 1 1 8.460300 8.460300 16.920600
651 1 1 5.640200 8.460300 19.740700
652 1 1 8.460300 5.640200 19.740700
653 1 2 8.460300 5.640200 16.920600
654 1 2 5.640200 8.460300 16.920600
655 1 2 5.640200 5.640200 19.740700
656 1 2 8.460300 8.460300 19.740700
657 1 1 11.280400 5.640200 16.920600
658 1 1 14.100500 8.460300 16.920600
659 1 1 11.280400 8.460300 19.740700
660 1 1 14.100500 5.640200 19.740700
661 1 2 14.100500 5.640200 16.920600
662 1 2 11.280400 8.460300 16.920600
663 1 2 11.280400 5.640200 19.740700
664 1 2 14.100500 8.460300 19.740700
665 1 1 16.920600 5.640200 16.920600
666 1 1 19.740700 8.460300 16.920600
667 1 1 16.920600 8.460300 19.740700
668 1 1 19.740700 5.640200 19.740700
669 1 2 19.740700 5.640200 16.920600
670 1 2 16.920600 8.460300 16.920600
671 1 2 16.920600 5.640200 19.740700
672 1 2 19.740700 8.460300 19.740700
673 1 1 22.560800 5.640200 16.920600
674 1 1 25.380900 8.460300 16.920600
675 1 1 22.560800 8.460300 19.740700
676 1 1 25.380900 5.640200 19.740700
677 1 2 25.380900 5.640200 16.920600
678 1 2 22.560800 8.460300 16.920600
679 1 2 22.560800 5.640200 19.740700
680 1 2 25.380900 8.460300 19.740700
681 1 1 0.000000 11.280400 16.920600
682 1 1 2.820100 14.100500 16.920600
683 1 1 0.000000 14.100500 19.740700
684 1 1 2.820100 11.280400 19.740700
685 1 2 2.820100 11.280400 16.920600
686 1 2 0.000000 14.100500 16.920600
687 1 2 0.000000 11.280400 19.740700
688 1 2 2.820100 14.100500 19.740700
689 1 1 5.640200 11.280400 16.920600
690 1 1 8.460300 14.100500 16.920600
691 1 1 5.640200 14.100500 19.740700
692 1 1 8.460300 11.280400 19.740700
693 1 2 8.460300 11.280400 16.920600
694 1 2 5.640200 14.100500 16.920600
695 1 2 5.640200 11.280400 19.740700
696 1 2 8.460300 14.100500 19.740700
697 1 1 11.280400 11.280400 16.920600
698 1 1 14.100500 14.100500 16.920600
699 1 1 11.280400 14.100500 19.740700
700 1 1 14.100500 11.280400 19.740700
701 1 2 14.100500 11.280400 16.920600
702 1 2 11.280400 14.100500 16.920600
703 1 2 11.280400 11.280400 19.740700
704 1 2 14.100500 14.100500 19.740700
705 1 1 16.920600 11.280400 16.920600
706 1 1 19.740700 14.100500 16.920600
707 1 1 16.920600 14.100500 19.740700
708 1 1 19.740700 11.280400 19.740700
709 1 2 19.740700 11.280400 16.920600
710 1 2 16.920600 14.100500 16.920600
711 1 2 16.920600 11.280400 19.740700
712 1 2 19.740700 14.100500 19.740700
713 1 1 22.560800 11.280400 16.920600
714 1 1 25.380900 14.100500 16.920600
715 1 1 22.560800 14.100500 19.740700
716 1 1 25.380900 11.280400 19.740700
717 1 2 25.380900 11.280400 16.920600
718 1 2 22.560800 14.100500 16.920600
719 1 2 22.560800 11.280400 19.740700
720 1 2 25.380900 14.100500 19.740700
721 1 1 0.000000 16.920600 16.920600
722 1 1 2.820100 19.740700 16.920600
723 1 1 0.000000 19.740700 19.740700
724 1 1 2.820100 16.920600 19.740700
725 1 2 2.820100 16.920600 16.920600
726 1 2 0.000000 19.740700 16.920600
727 1 2 0.000000 16.920600 19.740700
728 1 2 2.820100 19.740700 19.740700
729 1 1 5.640200 16.920600 16.920600
730 1 1 8.460300 19.740700 16.920600
731 1 1 5.640200 19.740700 19.740700
732 1 1 8.460300 16.920600 19.740700
733 1 2 8.460300 16.920600 16.920600
734 1 2 5.640200 19.740700 16.920600
735 1 2 5.640200 16.920600 19.740700
736 1 2 8.460300 19.740700 19.740700
737 1 1 11.280400 16.920600 16.920600
738 1 1 14.100500 19.740700 16.920600
739 1 1 11.280400 19.740700 19.740700
740 1 1 14.100500 16.920600 19.740700
741 1 2 14.100500 16.920600 16.920600
742 1 2 11.280400 19.740700 16.920600
743 1 2 11.280400 16.920600 19.740700
744 1 2 14.100500 19.740700 19.740700
745 1 1 16.920600 16.920600 16.920600
746 1 1 19.740700 19.740700 16.920600
747 1 1 16.920600 19.740700 19.740700
748 1 1 19.740700 16.920600 19.740700
749 1 2 19.740700 16.920600 16.920600
750 1 2 16.920600 19.740700 16.920600
751 1 2 16.920600 16.920600 19.740700
752 1 2 19.740700 19.740700 19.740700
753 1 1 22.560800 16.920600 16.920600
754 1 1 25.380900 19.740700 16.920600
755 1 1 22.560800 19.740700 19.740700
756 1 1 25.380900 16.920600 19.740700
757 1 2 25.380900 16.920600 16.920600
758 1 2 22.560800 19.740700 16.920600
759 1 2 22.560800 16.920600 19.740700
760 1 2 25.380900 19.740700 19.740700
761 1 1 0.000000 22.560800 16.920600
762 1 1 2.820100 25.380900 16.920600
763 1 1 0.000000 25.380900 19.740700
764 1 1 2.820100 22.560800 19.740700
765 1 2 2.820100 22.560800 16.920600
766 1 2 0.000000 25.380900 16.920600
767 1 2 0.000000 22.560800 19.740700
768 1 2 2.820100 25.380900 19.740700
769 1 1 5.640200 22.560800 16.920600
770 1 1 8.460300 25.380900 16.920600
771 1 1 5.640200 25.380900 19.740700
772 1 1 8.460300 22.560800 19.740700
773 1 2 8.460300 22.560800 16.920600
774 1 2 5.640200 25.380900 16.920600
775 1 2 5.640200 22.560800 19.740700
776 1 2 8.460300 25.380900 19.740700
777 1 1 11.280400 22.560800 16.920600
778 1 1 14.100500 25.380900 16.920600
779 1 1 11.280400 25.380900 19.740700
780 1 1 14.100500 22.560800 19.740700
781 1 2 14.100500 22.560800 16.920600
782 1 2 11.280400 25.380900 16.920600
783 1 2 11.280400 22.560800 19.740700
784 1 2 14.100500 25.380900 19.740700
785 1 1 16.920600 22.560800 16.920600
786 1 1 19.740700 25.380900 16.920600
787 1 1 16.920600 25.380900 19.740700
788 1 1 19.740700 22.560800 19.740700
789 1 2 19.740700 22.560800 16.920600
790 1 2 16.920600 25.380900 16.920600
791 1 2 16.920600 22.560800 19.740700
792 1 2 19.740700 25.380900 19.740700
793 1 1 22.560800 22.560800 16.920600
794 1 1 25.380900 25.380900 16.920600
795 1 1 22.560800 25.380900 19.740700
796 1 1 25.380900 22.560800 19.740700
797 1 2 25.380900 22.560800 16.920600
798 1 2 22.560800 25.380900 16.920600
799 1 2 22.560800 22.560800 19.740700
800 1 2 25.380900 25.380900 19.740700
801 1 1 0.000000 0.000000 22.560800
802 1 1 2.820100 2.820100 22.560800
803 1 1 0.000000 2.820100 25.380900
804 1 1 2.820100 0.000000 25.380900
805 1 2 2.820100 0.000000 22.560800
806 1 2 0.000000 2.820100 22.560800
807 1 2 0.000000 0.000000 25.380900
808 1 2 2.820100 2.820100 25.380900
809 1 1 5.640200 0.000000 22.560800
810 1 1 8.460300 2.820100 22.560800
811 1 1 5.640200 2.820100 25.380900
812 1 1 8.460300 0.000000 25.380900
813 1 2 8.460300 0.000000 22.560800
814 1 2 5.640200 2.820100 22.560800