ITEM: TIMESTEP
0
ITEM: NUMBER OF ATOMS
90      
ITEM: BOX BOUNDS pp pp pp
0.000000000      12.574099578    
0.000000000      21.778979328    
0.000000000      29.928687200    
ITEM: ATOMS id mol type xu yu zu
1 1 1 0.000000 0.000000 7.040320
2 1 1 2.095680 3.629830 7.040320
3 1 2 2.095680 -1.209940 5.468570
4 1 2 0.000000 2.419890 5.468570
5 1 1 2.095680 1.209940 3.520160
6 1 1 0.000000 4.839770 3.520160
7 1 2 0.000000 0.000000 1.571750
8 1 2 2.095680 3.629830 1.571750
9 1 1 2.095680 -1.209940 0.000000
10 1 1 0.000000 2.419890 0.000000
11 1 1 4.191367 0.000000 7.040320
12 1 1 6.287047 3.629830 7.040320
13 1 2 6.287047 -1.209940 5.468570
14 1 2 4.191367 2.419890 5.468570
15 1 1 6.287047 1.209940 3.520160
16 1 1 4.191367 4.839770 3.520160
17 1 2 4.191367 0.000000 1.571750
18 1 2 6.287047 3.629830 1.571750
19 1 1 6.287047 -1.209940 0.000000
20 1 1 4.191367 2.419890 0.000000
21 1 1 8.382733 0.000000 7.040320
22 1 1 10.478413 3.629830 7.040320
23 1 2 10.478413 -1.209940 5.468570
24 1 2 8.382733 2.419890 5.468570
25 1 1 10.478413 1.209940 3.520160
26 1 1 8.382733 4.839770 3.520160
27 1 2 8.382733 0.000000 1.571750
28 1 2 10.478413 3.629830 1.571750
29 1 1 10.478413 -1.209940 0.000000
30 1 1 8.382733 2.419890 0.000000
31 1 1 0.000000 7.259660 7.040320
32 1 1 2.095680 10.889490 7.040320
33 1 2 2.095680 6.049720 5.468570
34 1 2 0.000000 9.679550 5.468570
35 1 1 2.095680 8.469600 3.520160
36 1 1 0.000000 12.099430 3.520160
37 1 2 0.000000 7.259660 1.571750
38 1 2 2.095680 10.889490 1.571750
39 1 1 2.095680 6.049720 0.000000
40 1 1 0.000000 9.679550 0.000000
41 1 1 4.191367 7.259660 7.040320
42 1 1 6.287047 10.889490 7.040320
43 1 2 6.287047 6.049720 5.468570
44 1 2 4.191367 9.679550 5.468570
45 1 1 6.287047 8.469600 3.520160
46 1 1 4.191367 12.099430 3.520160
47 1 2 4.191367 7.259660 1.571750
48 1 2 6.287047 10.889490 1.571750
49 1 1 6.287047 6.049720 0.000000
50 1 1 4.191367 9.679550 0.000000
51 1 1 8.382733 7.259660 7.040320
52 1 1 10.478413 10.889490 7.040320
53 1 2 10.478413 6.049720 5.468570
54 1 2 8.382733 9.679550 5.468570
55 1 1 10.478413 8.469600 3.520160
56 1 1 8.382733 12.099430 3.520160
57 1 2 8.382733 7.259660 1.571750
58 1 2 10.478413 10.889490 1.571750
59 1 1 10.478413 6.049720 0.000000
60 1 1 8.382733 9.679550 0.000000
61 1 1 0.000000 14.519320 7.040320
62 1 1 2.095680 18.149150 7.040320
63 1 2 2.095680 13.309380 5.468570
64 1 2 0.000000 16.939210 5.468570
65 1 1 2.095680 15.729260 3.520160
66 1 1 0.000000 19.359090 3.520160
67 1 2 0.000000 14.519320 1.571750
68 1 2 2.095680 18.149150 1.571750
69 1 1 2.095680 13.309380 0.000000
70 1 1 0.000000 16.939210 0.000000
71 1 1 4.191367 14.519320 7.040320
72 1 1 6.287047 18.149150 7.040320
73 1 2 6.287047 13.309380 5.468570
74 1 2 4.191367 16.939210 5.468570
75 1 1 6.287047 15.729260 3.520160
76 1 1 4.191367 19.359090 3.520160
77 1 2 4.191367 14.519320 1.571750
78 1 2 6.287047 18.149150 1.571750
79 1 1 6.287047 13.309380 0.000000
80 1 1 4.191367 16.939210 0.000000
81 1 1 8.382733 14.519320 7.040320
82 1 1 10.478413 18.149150 7.040320
83 1 2 10.478413 13.309380 5.468570
84 1 2 8.382733 16.939210 5.468570
85 1 1 10.478413 15.729260 3.520160
86 1 1 8.382733 19.359090 3.520160
87 1 2 8.382733 14.519320 1.571750
88 1 2 10.478413 18.149150 1.571750
89 1 1 10.478413 13.309380 0.000000
90 1 1 8.382733 16.939210 0.000000
