# cwd: o.res_pa_m/run.ref
# cmd: mpirun -np 3 pw.x -in qe.in


     Program PWSCF v.6.7MaX starts on 12Nov2025 at 12:58:28 

     This program is part of the open-source Quantum ESPRESSO suite
     for quantum simulation of materials; please cite
         "P. Giannozzi et al., J. Phys.:Condens. Matter 21 395502 (2009);
         "P. Giannozzi et al., J. Phys.:Condens. Matter 29 465901 (2017);
          URL http://www.quantum-espresso.org", 
     in publications or presentations arising from this work. More details at
     http://www.quantum-espresso.org/quote

     Parallel version (MPI), running on     3 processors

     MPI processes distributed on     1 nodes
     R & G space division:  proc/nbgrp/npool/nimage =       3
     Reading input from qe.in

     Current dimensions of program PWSCF are:
     Max number of different atomic species (ntypx) = 10
     Max number of k-points (npk) =  40000
     Max angular momentum in pseudopotentials (lmaxx) =  3
     file N.pbe-n-kjpaw_psl.1.0.0.UPF: wavefunction(s)  2S renormalized

     Subspace diagonalization in iterative solution of the eigenvalue problem:
     a serial algorithm will be used

     Message from routine setup:
     using ibrav=0 with symmetry is DISCOURAGED, use correct ibrav instead

     Parallelization info
     --------------------
     sticks:   dense  smooth     PW     G-vecs:    dense   smooth      PW
     Min         248     122     40                44082    15514    2832
     Max         249     123     41                44121    15545    2853
     Sum         745     367    121               132289    46573    8529



     bravais-lattice index     =            0
     lattice parameter (alat)  =       4.7519  a.u.
     unit-cell volume          =     743.3995 (a.u.)^3
     number of atoms/cell      =            2
     number of atomic types    =            2
     number of electrons       =         8.00
     number of Kohn-Sham states=            8
     kinetic-energy cutoff     =      60.0000  Ry
     charge density cutoff     =     480.0000  Ry
     scf convergence threshold =      1.0E-08
     mixing beta               =       0.7000
     number of iterations used =            8  plain     mixing
     energy convergence thresh.=      1.0E-04
     force convergence thresh. =      1.0E-03
     Exchange-correlation= SLA  PW   PBX  PBC
                           (   1   4   3   4   0   0   0)
     nstep                     =           50


     celldm(1)=   4.751900  celldm(2)=   0.000000  celldm(3)=   0.000000
     celldm(4)=   0.000000  celldm(5)=   0.000000  celldm(6)=   0.000000

     crystal axes: (cart. coord. in units of alat)
               a(1) = (   1.000000   0.000000   0.000000 )  
               a(2) = (   0.500000   0.866025   0.000000 )  
               a(3) = (   0.000000   0.000000   8.000000 )  

     reciprocal axes: (cart. coord. in units 2 pi/alat)
               b(1) = (  1.000000 -0.577351  0.000000 )  
               b(2) = (  0.000000  1.154701  0.000000 )  
               b(3) = (  0.000000  0.000000  0.125000 )  


     PseudoPot. # 1 for B  read from file:
     ../../PSEUDO/B.pbe-n-kjpaw_psl.1.0.0.UPF
     MD5 check sum: cdf8f75bef5223b293e087bc2c755083
     Pseudo is Projector augmented-wave + core cor, Zval =  3.0
     Generated using 'atomic' code by A. Dal Corso  v.7.0
     Shape of augmentation charge: PSQ
     Using radial grid of 1059 points,  4 beta functions with: 
                l(1) =   0
                l(2) =   0
                l(3) =   1
                l(4) =   1
     Q(r) pseudized with 0 coefficients 


     PseudoPot. # 2 for N  read from file:
     ../../PSEUDO/N.pbe-n-kjpaw_psl.1.0.0.UPF
     MD5 check sum: 0fbee1c51453e7d4733b1acc8ff6f686
     Pseudo is Projector augmented-wave + core cor, Zval =  5.0
     Generated using 'atomic' code by A. Dal Corso  v.7.0
     Shape of augmentation charge: PSQ
     Using radial grid of 1085 points,  4 beta functions with: 
                l(1) =   0
                l(2) =   0
                l(3) =   1
                l(4) =   1
     Q(r) pseudized with 0 coefficients 


     atomic species   valence    mass     pseudopotential
        B              3.00    10.81000     B ( 1.00)
        N              5.00    14.01000     N ( 1.00)

      4 Sym. Ops. (no inversion) found



   Cartesian axes

     site n.     atom                  positions (alat units)
         1           B   tau(   1) = (   0.0000000   0.0000000   0.0000000  )
         2           N   tau(   2) = (   0.5000000   0.2886610   0.0000000  )

     number of k points=    21  Gaussian smearing, width (Ry)=  0.0010
                       cart. coord. in units 2pi/alat
        k(    1) = (   0.0000000   0.0000000   0.0000000), wk =   0.0312500
        k(    2) = (   0.0000000   0.1443376   0.0000000), wk =   0.0625000
        k(    3) = (   0.0000000   0.2886753   0.0000000), wk =   0.0625000
        k(    4) = (   0.0000000   0.4330129   0.0000000), wk =   0.0625000
        k(    5) = (   0.0000000  -0.5773505   0.0000000), wk =   0.0312500
        k(    6) = (   0.1250000   0.2165065   0.0000000), wk =   0.1250000
        k(    7) = (   0.1250000   0.3608441   0.0000000), wk =   0.1250000
        k(    8) = (   0.1250000  -0.6495194   0.0000000), wk =   0.1250000
        k(    9) = (   0.2500000  -0.7216882   0.0000000), wk =   0.1250000
        k(   10) = (   0.2500000  -0.5773505   0.0000000), wk =   0.0625000
        k(   11) = (  -0.1250000   0.0721688   0.0000000), wk =   0.1250000
        k(   12) = (  -0.2500000   0.1443376   0.0000000), wk =   0.1250000
        k(   13) = (  -0.3750000   0.2165065   0.0000000), wk =   0.1250000
        k(   14) = (   0.5000000  -0.2886753   0.0000000), wk =   0.0625000
        k(   15) = (   0.2500000   0.0000000   0.0000000), wk =   0.0625000
        k(   16) = (  -0.2500000   0.2886753   0.0000000), wk =   0.1250000
        k(   17) = (   0.3750000   0.0721688   0.0000000), wk =   0.1250000
        k(   18) = (   0.6250000  -0.2165065   0.0000000), wk =   0.1250000
        k(   19) = (  -0.5000000  -0.4330129   0.0000000), wk =   0.1250000
        k(   20) = (  -0.5000000  -0.5773505   0.0000000), wk =   0.0625000
        k(   21) = (   0.6250000  -0.0721688   0.0000000), wk =   0.1250000

     Dense  grid:   132289 G-vectors     FFT dimensions: (  36,  36, 270)

     Smooth grid:    46573 G-vectors     FFT dimensions: (  24,  24, 192)

     Estimated max dynamical RAM per process >      67.84 MB

     Estimated total dynamical RAM >     203.53 MB

     Initial potential from superposition of free atoms

     starting charge    7.99971, renormalised to    8.00000

     negative rho (up, down):  8.695E-05 0.000E+00
     Starting wfcs are    8 randomized atomic wfcs
     Checking if some PAW data can be deallocated... 

     total cpu time spent up to now is        1.1 secs

     Self-consistent Calculation

     iteration #  1     ecut=    60.00 Ry     beta= 0.70
     Davidson diagonalization with overlap
     ethr =  1.00E-02,  avg # of iterations =  7.2

     negative rho (up, down):  1.370E-04 0.000E+00

     total cpu time spent up to now is        2.1 secs

     total energy              =     -39.73339091 Ry
     estimated scf accuracy    <       0.39501459 Ry

     iteration #  2     ecut=    60.00 Ry     beta= 0.70
     Davidson diagonalization with overlap
     ethr =  4.94E-03,  avg # of iterations =  4.1

     negative rho (up, down):  1.321E-04 0.000E+00

     total cpu time spent up to now is        3.0 secs

     total energy              =     -39.82269271 Ry
     estimated scf accuracy    <       0.20375039 Ry

     iteration #  3     ecut=    60.00 Ry     beta= 0.70
     Davidson diagonalization with overlap
     ethr =  2.55E-03,  avg # of iterations =  2.3

     negative rho (up, down):  1.490E-04 0.000E+00

     total cpu time spent up to now is        3.7 secs

     total energy              =     -39.86440320 Ry
     estimated scf accuracy    <       0.00197007 Ry

     iteration #  4     ecut=    60.00 Ry     beta= 0.70
     Davidson diagonalization with overlap
     ethr =  2.46E-05,  avg # of iterations =  8.5

     negative rho (up, down):  1.569E-04 0.000E+00

     total cpu time spent up to now is        4.8 secs

     total energy              =     -39.86481325 Ry
     estimated scf accuracy    <       0.00030448 Ry

     iteration #  5     ecut=    60.00 Ry     beta= 0.70
     Davidson diagonalization with overlap
     ethr =  3.81E-06,  avg # of iterations =  3.4

     negative rho (up, down):  1.622E-04 0.000E+00

     total cpu time spent up to now is        5.6 secs

     total energy              =     -39.86488122 Ry
     estimated scf accuracy    <       0.00001420 Ry

     iteration #  6     ecut=    60.00 Ry     beta= 0.70
     Davidson diagonalization with overlap
     ethr =  1.77E-07,  avg # of iterations =  1.3

     negative rho (up, down):  1.620E-04 0.000E+00

     total cpu time spent up to now is        6.3 secs

     total energy              =     -39.86488178 Ry
     estimated scf accuracy    <       0.00000137 Ry

     iteration #  7     ecut=    60.00 Ry     beta= 0.70
     Davidson diagonalization with overlap
     ethr =  1.71E-08,  avg # of iterations =  2.0

     negative rho (up, down):  1.621E-04 0.000E+00

     total cpu time spent up to now is        7.2 secs

     total energy              =     -39.86488216 Ry
     estimated scf accuracy    <       0.00000001 Ry

     iteration #  8     ecut=    60.00 Ry     beta= 0.70
     Davidson diagonalization with overlap
     ethr =  1.49E-10,  avg # of iterations =  2.2

     negative rho (up, down):  1.621E-04 0.000E+00

     total cpu time spent up to now is        8.0 secs

     End of self-consistent calculation

          k = 0.0000 0.0000 0.0000 (  5775 PWs)   bands (ev):

   -21.6908  -9.2781  -5.4356  -5.4348   0.6018   1.4686   1.6839   2.6149

          k = 0.0000 0.1443 0.0000 (  5792 PWs)   bands (ev):

   -21.3946  -8.8795  -6.6199  -5.9747   1.1087   1.9421   2.1804   3.0851

          k = 0.0000 0.2887 0.0000 (  5812 PWs)   bands (ev):

   -20.5487  -9.1740  -7.7310  -7.0394   2.5443   3.2345   3.6606   4.3078

          k = 0.0000 0.4330 0.0000 (  5874 PWs)   bands (ev):

   -19.3635 -11.7165  -7.8968  -6.0715   2.1607   4.6818   5.9980   6.0412

          k = 0.0000-0.5774 0.0000 (  5820 PWs)   bands (ev):

   -18.6403 -12.9356  -8.2111  -4.9823   0.7025   5.5884   8.3408   8.7786

          k = 0.1250 0.2165 0.0000 (  5792 PWs)   bands (ev):

   -20.8217  -8.2407  -8.1039  -7.0271   2.0883   2.8504   3.1703   3.9715

          k = 0.1250 0.3608 0.0000 (  5832 PWs)   bands (ev):

   -19.7823 -10.5299  -8.2680  -6.6710   3.1315   3.9769   5.1148   5.1416

          k = 0.1250-0.6495 0.0000 (  5840 PWs)   bands (ev):

   -18.7013 -12.4402  -8.9456  -5.0913   1.1376   6.3381   7.6884   7.8053

          k = 0.2500-0.7217 0.0000 (  5872 PWs)   bands (ev):

   -18.7592 -11.6565  -9.9449  -5.1921   1.6178   6.3220   7.2894   7.6068

          k = 0.2500-0.5774 0.0000 (  5824 PWs)   bands (ev):

   -18.1845 -12.2413 -10.6297  -4.2787   0.6730   8.5266   8.6482   9.6588

          k =-0.1250 0.0722 0.0000 (  5792 PWs)   bands (ev):

   -21.3946  -8.8795  -6.6203  -5.9741   1.1087   1.9421   2.1804   3.0850

          k =-0.2500 0.1443 0.0000 (  5812 PWs)   bands (ev):

   -20.5487  -9.1743  -7.7310  -7.0389   2.5443   3.2345   3.6606   4.3080

          k =-0.3750 0.2165 0.0000 (  5874 PWs)   bands (ev):

   -19.3636 -11.7167  -7.8965  -6.0714   2.1604   4.6818   5.9981   6.0413

          k = 0.5000-0.2887 0.0000 (  5820 PWs)   bands (ev):

   -18.6404 -12.9357  -8.2108  -4.9821   0.7022   5.5885   8.3408   8.7785

          k = 0.2500 0.0000 0.0000 (  5792 PWs)   bands (ev):

   -20.8217  -8.2410  -8.1039  -7.0267   2.0883   2.8504   3.1703   3.9715

          k =-0.2500 0.2887 0.0000 (  5832 PWs)   bands (ev):

   -19.7823 -10.5300  -8.2678  -6.6709   3.1314   3.9769   5.1147   5.1414

          k = 0.3750 0.0722 0.0000 (  5832 PWs)   bands (ev):

   -19.7824 -10.5301  -8.2677  -6.6709   3.1313   3.9769   5.1146   5.1414

          k = 0.6250-0.2165 0.0000 (  5840 PWs)   bands (ev):

   -18.7014 -12.4403  -8.9453  -5.0912   1.1373   6.3382   7.6884   7.8052

          k =-0.5000-0.4330 0.0000 (  5840 PWs)   bands (ev):

   -18.7014 -12.4403  -8.9453  -5.0911   1.1373   6.3382   7.6885   7.8057

          k =-0.5000-0.5774 0.0000 (  5872 PWs)   bands (ev):

   -18.7592 -11.6566  -9.9448  -5.1920   1.6176   6.3220   7.2894   7.6068

          k = 0.6250-0.0722 0.0000 (  5824 PWs)   bands (ev):

   -18.1845 -12.2414 -10.6295  -4.2786   0.6728   8.5267   8.6482   9.6588

     the Fermi energy is    -2.0905 ev

!    total energy              =     -39.86488216 Ry

     total all-electron energy =      -159.403028 Ry
     estimated scf accuracy    <          1.4E-09 Ry
     smearing contrib. (-TS)   =      -0.00000000 Ry
     internal energy E=F+TS    =     -39.86488216 Ry

     The total energy is F=E-TS. E is the sum of the following terms:
     one-electron contribution =    -220.09596951 Ry
     hartree contribution      =     111.81232588 Ry
     xc contribution           =      -8.80427445 Ry
     ewald contribution        =      90.40330568 Ry
     one-center paw contrib.   =     -13.18026977 Ry

     convergence has been achieved in   8 iterations

     negative rho (up, down):  1.621E-04 0.000E+00

     Forces acting on atoms (cartesian axes, Ry/au):

     atom    1 type  1   force =     0.00000000   -0.00005513    0.00000000
     atom    2 type  2   force =     0.00000000    0.00005513    0.00000000

     Total force =     0.000078     Total SCF correction =     0.000003


     Computing stress (Cartesian axis) and pressure


     negative rho (up, down):  1.621E-04 0.000E+00
          total   stress  (Ry/bohr**3)                   (kbar)     P=        0.01
   0.00000157   0.00000000   0.00000000            0.23        0.00        0.00
   0.00000000   0.00000149  -0.00000000            0.00        0.22       -0.00
   0.00000000   0.00000000  -0.00000277            0.00        0.00       -0.41


     BFGS Geometry Optimization
     Energy error            =      0.0E+00
     Gradient error          =      5.5E-05

     bfgs converged in   1 scf cycles and   0 bfgs steps
     (criteria: energy <  1.0E-04 Ry, force <  1.0E-03 Ry/Bohr)

     End of BFGS Geometry Optimization

     Final energy   =     -39.8648821649 Ry
Begin final coordinates

ATOMIC_POSITIONS (angstrom)
B             0.0000000000        0.0000000000        0.0000000000
N             1.2572985882        0.7258661355        0.0000000000
End final coordinates



     Writing output data file /home/aps/Programs/SimuGlue/examples/run_cij_hbn_qe/OUTDIR/hbn/run.ref/hbn.save/

     init_run     :      0.91s CPU      0.98s WALL (       1 calls)
     electrons    :      6.81s CPU      6.94s WALL (       1 calls)
     forces       :      0.56s CPU      0.56s WALL (       1 calls)
     stress       :      1.18s CPU      1.18s WALL (       1 calls)

     Called by init_run:
     wfcinit      :      0.19s CPU      0.19s WALL (       1 calls)
     potinit      :      0.23s CPU      0.24s WALL (       1 calls)
     hinit0       :      0.45s CPU      0.46s WALL (       1 calls)

     Called by electrons:
     c_bands      :      4.88s CPU      4.95s WALL (       8 calls)
     sum_band     :      0.99s CPU      1.02s WALL (       8 calls)
     v_of_rho     :      0.40s CPU      0.43s WALL (       9 calls)
     newd         :      0.33s CPU      0.35s WALL (       9 calls)
     PAW_pot      :      0.18s CPU      0.19s WALL (       9 calls)
     mix_rho      :      0.06s CPU      0.07s WALL (       8 calls)

     Called by c_bands:
     init_us_2    :      0.10s CPU      0.10s WALL (     399 calls)
     cegterg      :      4.70s CPU      4.77s WALL (     168 calls)

     Called by *egterg:
     cdiaghg      :      0.05s CPU      0.06s WALL (     822 calls)
     h_psi        :      3.52s CPU      3.57s WALL (     843 calls)
     s_psi        :      0.16s CPU      0.16s WALL (     843 calls)
     g_psi        :      0.03s CPU      0.03s WALL (     654 calls)

     Called by h_psi:
     h_psi:calbec :      0.28s CPU      0.28s WALL (     843 calls)
     vloc_psi     :      3.06s CPU      3.11s WALL (     843 calls)
     add_vuspsi   :      0.17s CPU      0.17s WALL (     843 calls)

     General routines
     calbec       :      0.43s CPU      0.43s WALL (    1116 calls)
     fft          :      0.35s CPU      0.36s WALL (     140 calls)
     ffts         :      0.01s CPU      0.01s WALL (      17 calls)
     fftw         :      3.26s CPU      3.31s WALL (    9566 calls)
     interpolate  :      0.03s CPU      0.03s WALL (       9 calls)

     Parallel routines
     fft_scatt_xy :      0.34s CPU      0.35s WALL (    9723 calls)
     fft_scatt_yz :      1.58s CPU      1.60s WALL (    9723 calls)

     PWSCF        :      9.55s CPU      9.79s WALL


   This run was terminated on:  12:58:38  12Nov2025            

=------------------------------------------------------------------------------=
   JOB DONE.
=------------------------------------------------------------------------------=
