(written by ASE)

256 atoms
1 atom types

1536 bonds
1 bond types

0.0                   14.08  xlo xhi
0.0                   14.08  ylo yhi
0.0                   14.08  zlo zhi
                      0                       0                       0  xy xz yz

Masses

     1      58.693399999999983 # Ni

Atoms # full

     1   1   1   0.0                       0                       0                       0
     2   1   1   0.0                    1.76                    1.76                       0
     3   1   1   0.0                       0                    1.76                    1.76
     4   1   1   0.0                    1.76                       0                    1.76
     5   1   1   0.0                    3.52                       0                       0
     6   1   1   0.0      5.2800000000000002                    1.76                       0
     7   1   1   0.0                    3.52                    1.76                    1.76
     8   1   1   0.0      5.2800000000000002                       0                    1.76
     9   1   1   0.0                    7.04                       0                       0
    10   1   1   0.0      8.8000000000000007                    1.76                       0
    11   1   1   0.0                    7.04                    1.76                    1.76
    12   1   1   0.0      8.8000000000000007                       0                    1.76
    13   1   1   0.0                   10.56                       0                       0
    14   1   1   0.0                   12.32                    1.76                       0
    15   1   1   0.0                   10.56                    1.76                    1.76
    16   1   1   0.0                   12.32                       0                    1.76
    17   1   1   0.0                       0                    3.52                       0
    18   1   1   0.0                    1.76      5.2800000000000002                       0
    19   1   1   0.0                       0      5.2800000000000002                    1.76
    20   1   1   0.0                    1.76                    3.52                    1.76
    21   1   1   0.0                    3.52                    3.52                       0
    22   1   1   0.0      5.2800000000000002      5.2800000000000002                       0
    23   1   1   0.0                    3.52      5.2800000000000002                    1.76
    24   1   1   0.0      5.2800000000000002                    3.52                    1.76
    25   1   1   0.0                    7.04                    3.52                       0
    26   1   1   0.0      8.8000000000000007      5.2800000000000002                       0
    27   1   1   0.0                    7.04      5.2800000000000002                    1.76
    28   1   1   0.0      8.8000000000000007                    3.52                    1.76
    29   1   1   0.0                   10.56                    3.52                       0
    30   1   1   0.0                   12.32      5.2800000000000002                       0
    31   1   1   0.0                   10.56      5.2800000000000002                    1.76
    32   1   1   0.0                   12.32                    3.52                    1.76
    33   1   1   0.0                       0                    7.04                       0
    34   1   1   0.0                    1.76      8.8000000000000007                       0
    35   1   1   0.0                       0      8.8000000000000007                    1.76
    36   1   1   0.0                    1.76                    7.04                    1.76
    37   1   1   0.0                    3.52                    7.04                       0
    38   1   1   0.0      5.2800000000000002      8.8000000000000007                       0
    39   1   1   0.0                    3.52      8.8000000000000007                    1.76
    40   1   1   0.0      5.2800000000000002                    7.04                    1.76
    41   1   1   0.0                    7.04                    7.04                       0
    42   1   1   0.0      8.8000000000000007      8.8000000000000007                       0
    43   1   1   0.0                    7.04      8.8000000000000007                    1.76
    44   1   1   0.0      8.8000000000000007                    7.04                    1.76
    45   1   1   0.0                   10.56                    7.04                       0
    46   1   1   0.0                   12.32      8.8000000000000007                       0
    47   1   1   0.0                   10.56      8.8000000000000007                    1.76
    48   1   1   0.0                   12.32                    7.04                    1.76
    49   1   1   0.0                       0                   10.56                       0
    50   1   1   0.0                    1.76                   12.32                       0
    51   1   1   0.0                       0                   12.32                    1.76
    52   1   1   0.0                    1.76                   10.56                    1.76
    53   1   1   0.0                    3.52                   10.56                       0
    54   1   1   0.0      5.2800000000000002                   12.32                       0
    55   1   1   0.0                    3.52                   12.32                    1.76
    56   1   1   0.0      5.2800000000000002                   10.56                    1.76
    57   1   1   0.0                    7.04                   10.56                       0
    58   1   1   0.0      8.8000000000000007                   12.32                       0
    59   1   1   0.0                    7.04                   12.32                    1.76
    60   1   1   0.0      8.8000000000000007                   10.56                    1.76
    61   1   1   0.0                   10.56                   10.56                       0
    62   1   1   0.0                   12.32                   12.32                       0
    63   1   1   0.0                   10.56                   12.32                    1.76
    64   1   1   0.0                   12.32                   10.56                    1.76
    65   1   1   0.0                       0                       0                    3.52
    66   1   1   0.0                    1.76                    1.76                    3.52
    67   1   1   0.0                       0                    1.76      5.2800000000000002
    68   1   1   0.0                    1.76                       0      5.2800000000000002
    69   1   1   0.0                    3.52                       0                    3.52
    70   1   1   0.0      5.2800000000000002                    1.76                    3.52
    71   1   1   0.0                    3.52                    1.76      5.2800000000000002
    72   1   1   0.0      5.2800000000000002                       0      5.2800000000000002
    73   1   1   0.0                    7.04                       0                    3.52
    74   1   1   0.0      8.8000000000000007                    1.76                    3.52
    75   1   1   0.0                    7.04                    1.76      5.2800000000000002
    76   1   1   0.0      8.8000000000000007                       0      5.2800000000000002
    77   1   1   0.0                   10.56                       0                    3.52
    78   1   1   0.0                   12.32                    1.76                    3.52
    79   1   1   0.0                   10.56                    1.76      5.2800000000000002
    80   1   1   0.0                   12.32                       0      5.2800000000000002
    81   1   1   0.0                       0                    3.52                    3.52
    82   1   1   0.0                    1.76      5.2800000000000002                    3.52
    83   1   1   0.0                       0      5.2800000000000002      5.2800000000000002
    84   1   1   0.0                    1.76                    3.52      5.2800000000000002
    85   1   1   0.0                    3.52                    3.52                    3.52
    86   1   1   0.0      5.2800000000000002      5.2800000000000002                    3.52
    87   1   1   0.0                    3.52      5.2800000000000002      5.2800000000000002
    88   1   1   0.0      5.2800000000000002                    3.52      5.2800000000000002
    89   1   1   0.0                    7.04                    3.52                    3.52
    90   1   1   0.0      8.8000000000000007      5.2800000000000002                    3.52
    91   1   1   0.0                    7.04      5.2800000000000002      5.2800000000000002
    92   1   1   0.0      8.8000000000000007                    3.52      5.2800000000000002
    93   1   1   0.0                   10.56                    3.52                    3.52
    94   1   1   0.0                   12.32      5.2800000000000002                    3.52
    95   1   1   0.0                   10.56      5.2800000000000002      5.2800000000000002
    96   1   1   0.0                   12.32                    3.52      5.2800000000000002
    97   1   1   0.0                       0                    7.04                    3.52
    98   1   1   0.0                    1.76      8.8000000000000007                    3.52
    99   1   1   0.0                       0      8.8000000000000007      5.2800000000000002
   100   1   1   0.0                    1.76                    7.04      5.2800000000000002
   101   1   1   0.0                    3.52                    7.04                    3.52
   102   1   1   0.0      5.2800000000000002      8.8000000000000007                    3.52
   103   1   1   0.0                    3.52      8.8000000000000007      5.2800000000000002
   104   1   1   0.0      5.2800000000000002                    7.04      5.2800000000000002
   105   1   1   0.0                    7.04                    7.04                    3.52
   106   1   1   0.0      8.8000000000000007      8.8000000000000007                    3.52
   107   1   1   0.0                    7.04      8.8000000000000007      5.2800000000000002
   108   1   1   0.0      8.8000000000000007                    7.04      5.2800000000000002
   109   1   1   0.0                   10.56                    7.04                    3.52
   110   1   1   0.0                   12.32      8.8000000000000007                    3.52
   111   1   1   0.0                   10.56      8.8000000000000007      5.2800000000000002
   112   1   1   0.0                   12.32                    7.04      5.2800000000000002
   113   1   1   0.0                       0                   10.56                    3.52
   114   1   1   0.0                    1.76                   12.32                    3.52
   115   1   1   0.0                       0                   12.32      5.2800000000000002
   116   1   1   0.0                    1.76                   10.56      5.2800000000000002
   117   1   1   0.0                    3.52                   10.56                    3.52
   118   1   1   0.0      5.2800000000000002                   12.32                    3.52
   119   1   1   0.0                    3.52                   12.32      5.2800000000000002
   120   1   1   0.0      5.2800000000000002                   10.56      5.2800000000000002
   121   1   1   0.0                    7.04                   10.56                    3.52
   122   1   1   0.0      8.8000000000000007                   12.32                    3.52
   123   1   1   0.0                    7.04                   12.32      5.2800000000000002
   124   1   1   0.0      8.8000000000000007                   10.56      5.2800000000000002
   125   1   1   0.0                   10.56                   10.56                    3.52
   126   1   1   0.0                   12.32                   12.32                    3.52
   127   1   1   0.0                   10.56                   12.32      5.2800000000000002
   128   1   1   0.0                   12.32                   10.56      5.2800000000000002
   129   1   1   0.0                       0                       0                    7.04
   130   1   1   0.0                    1.76                    1.76                    7.04
   131   1   1   0.0                       0                    1.76      8.8000000000000007
   132   1   1   0.0                    1.76                       0      8.8000000000000007
   133   1   1   0.0                    3.52                       0                    7.04
   134   1   1   0.0      5.2800000000000002                    1.76                    7.04
   135   1   1   0.0                    3.52                    1.76      8.8000000000000007
   136   1   1   0.0      5.2800000000000002                       0      8.8000000000000007
   137   1   1   0.0                    7.04                       0                    7.04
   138   1   1   0.0      8.8000000000000007                    1.76                    7.04
   139   1   1   0.0                    7.04                    1.76      8.8000000000000007
   140   1   1   0.0      8.8000000000000007                       0      8.8000000000000007
   141   1   1   0.0                   10.56                       0                    7.04
   142   1   1   0.0                   12.32                    1.76                    7.04
   143   1   1   0.0                   10.56                    1.76      8.8000000000000007
   144   1   1   0.0                   12.32                       0      8.8000000000000007
   145   1   1   0.0                       0                    3.52                    7.04
   146   1   1   0.0                    1.76      5.2800000000000002                    7.04
   147   1   1   0.0                       0      5.2800000000000002      8.8000000000000007
   148   1   1   0.0                    1.76                    3.52      8.8000000000000007
   149   1   1   0.0                    3.52                    3.52                    7.04
   150   1   1   0.0      5.2800000000000002      5.2800000000000002                    7.04
   151   1   1   0.0                    3.52      5.2800000000000002      8.8000000000000007
   152   1   1   0.0      5.2800000000000002                    3.52      8.8000000000000007
   153   1   1   0.0                    7.04                    3.52                    7.04
   154   1   1   0.0      8.8000000000000007      5.2800000000000002                    7.04
   155   1   1   0.0                    7.04      5.2800000000000002      8.8000000000000007
   156   1   1   0.0      8.8000000000000007                    3.52      8.8000000000000007
   157   1   1   0.0                   10.56                    3.52                    7.04
   158   1   1   0.0                   12.32      5.2800000000000002                    7.04
   159   1   1   0.0                   10.56      5.2800000000000002      8.8000000000000007
   160   1   1   0.0                   12.32                    3.52      8.8000000000000007
   161   1   1   0.0                       0                    7.04                    7.04
   162   1   1   0.0                    1.76      8.8000000000000007                    7.04
   163   1   1   0.0                       0      8.8000000000000007      8.8000000000000007
   164   1   1   0.0                    1.76                    7.04      8.8000000000000007
   165   1   1   0.0                    3.52                    7.04                    7.04
   166   1   1   0.0      5.2800000000000002      8.8000000000000007                    7.04
   167   1   1   0.0                    3.52      8.8000000000000007      8.8000000000000007
   168   1   1   0.0      5.2800000000000002                    7.04      8.8000000000000007
   169   1   1   0.0                    7.04                    7.04                    7.04
   170   1   1   0.0      8.8000000000000007      8.8000000000000007                    7.04
   171   1   1   0.0                    7.04      8.8000000000000007      8.8000000000000007
   172   1   1   0.0      8.8000000000000007                    7.04      8.8000000000000007
   173   1   1   0.0                   10.56                    7.04                    7.04
   174   1   1   0.0                   12.32      8.8000000000000007                    7.04
   175   1   1   0.0                   10.56      8.8000000000000007      8.8000000000000007
   176   1   1   0.0                   12.32                    7.04      8.8000000000000007
   177   1   1   0.0                       0                   10.56                    7.04
   178   1   1   0.0                    1.76                   12.32                    7.04
   179   1   1   0.0                       0                   12.32      8.8000000000000007
   180   1   1   0.0                    1.76                   10.56      8.8000000000000007
   181   1   1   0.0                    3.52                   10.56                    7.04
   182   1   1   0.0      5.2800000000000002                   12.32                    7.04
   183   1   1   0.0                    3.52                   12.32      8.8000000000000007
   184   1   1   0.0      5.2800000000000002                   10.56      8.8000000000000007
   185   1   1   0.0                    7.04                   10.56                    7.04
   186   1   1   0.0      8.8000000000000007                   12.32                    7.04
   187   1   1   0.0                    7.04                   12.32      8.8000000000000007
   188   1   1   0.0      8.8000000000000007                   10.56      8.8000000000000007
   189   1   1   0.0                   10.56                   10.56                    7.04
   190   1   1   0.0                   12.32                   12.32                    7.04
   191   1   1   0.0                   10.56                   12.32      8.8000000000000007
   192   1   1   0.0                   12.32                   10.56      8.8000000000000007
   193   1   1   0.0                       0                       0                   10.56
   194   1   1   0.0                    1.76                    1.76                   10.56
   195   1   1   0.0                       0                    1.76                   12.32
   196   1   1   0.0                    1.76                       0                   12.32
   197   1   1   0.0                    3.52                       0                   10.56
   198   1   1   0.0      5.2800000000000002                    1.76                   10.56
   199   1   1   0.0                    3.52                    1.76                   12.32
   200   1   1   0.0      5.2800000000000002                       0                   12.32
   201   1   1   0.0                    7.04                       0                   10.56
   202   1   1   0.0      8.8000000000000007                    1.76                   10.56
   203   1   1   0.0                    7.04                    1.76                   12.32
   204   1   1   0.0      8.8000000000000007                       0                   12.32
   205   1   1   0.0                   10.56                       0                   10.56
   206   1   1   0.0                   12.32                    1.76                   10.56
   207   1   1   0.0                   10.56                    1.76                   12.32
   208   1   1   0.0                   12.32                       0                   12.32
   209   1   1   0.0                       0                    3.52                   10.56
   210   1   1   0.0                    1.76      5.2800000000000002                   10.56
   211   1   1   0.0                       0      5.2800000000000002                   12.32
   212   1   1   0.0                    1.76                    3.52                   12.32
   213   1   1   0.0                    3.52                    3.52                   10.56
   214   1   1   0.0      5.2800000000000002      5.2800000000000002                   10.56
   215   1   1   0.0                    3.52      5.2800000000000002                   12.32
   216   1   1   0.0      5.2800000000000002                    3.52                   12.32
   217   1   1   0.0                    7.04                    3.52                   10.56
   218   1   1   0.0      8.8000000000000007      5.2800000000000002                   10.56
   219   1   1   0.0                    7.04      5.2800000000000002                   12.32
   220   1   1   0.0      8.8000000000000007                    3.52                   12.32
   221   1   1   0.0                   10.56                    3.52                   10.56
   222   1   1   0.0                   12.32      5.2800000000000002                   10.56
   223   1   1   0.0                   10.56      5.2800000000000002                   12.32
   224   1   1   0.0                   12.32                    3.52                   12.32
   225   1   1   0.0                       0                    7.04                   10.56
   226   1   1   0.0                    1.76      8.8000000000000007                   10.56
   227   1   1   0.0                       0      8.8000000000000007                   12.32
   228   1   1   0.0                    1.76                    7.04                   12.32
   229   1   1   0.0                    3.52                    7.04                   10.56
   230   1   1   0.0      5.2800000000000002      8.8000000000000007                   10.56
   231   1   1   0.0                    3.52      8.8000000000000007                   12.32
   232   1   1   0.0      5.2800000000000002                    7.04                   12.32
   233   1   1   0.0                    7.04                    7.04                   10.56
   234   1   1   0.0      8.8000000000000007      8.8000000000000007                   10.56
   235   1   1   0.0                    7.04      8.8000000000000007                   12.32
   236   1   1   0.0      8.8000000000000007                    7.04                   12.32
   237   1   1   0.0                   10.56                    7.04                   10.56
   238   1   1   0.0                   12.32      8.8000000000000007                   10.56
   239   1   1   0.0                   10.56      8.8000000000000007                   12.32
   240   1   1   0.0                   12.32                    7.04                   12.32
   241   1   1   0.0                       0                   10.56                   10.56
   242   1   1   0.0                    1.76                   12.32                   10.56
   243   1   1   0.0                       0                   12.32                   12.32
   244   1   1   0.0                    1.76                   10.56                   12.32
   245   1   1   0.0                    3.52                   10.56                   10.56
   246   1   1   0.0      5.2800000000000002                   12.32                   10.56
   247   1   1   0.0                    3.52                   12.32                   12.32
   248   1   1   0.0      5.2800000000000002                   10.56                   12.32
   249   1   1   0.0                    7.04                   10.56                   10.56
   250   1   1   0.0      8.8000000000000007                   12.32                   10.56
   251   1   1   0.0                    7.04                   12.32                   12.32
   252   1   1   0.0      8.8000000000000007                   10.56                   12.32
   253   1   1   0.0                   10.56                   10.56                   10.56
   254   1   1   0.0                   12.32                   12.32                   10.56
   255   1   1   0.0                   10.56                   12.32                   12.32
   256   1   1   0.0                   12.32                   10.56                   12.32

Bonds

  1   1   1   2
  2   1   1   3
  3   1   1   4
  4   1   1  14
  5   1   1  16
  6   1   1  50
  7   1   1  51
  8   1   1  62
  9   1   1 195
 10   1   1 196
 11   1   1 208
 12   1   1 243
 13   1   2   3
 14   1   2   4
 15   1   2   5
 16   1   2   7
 17   1   2  17
 18   1   2  20
 19   1   2  21
 20   1   2 195
 21   1   2 196
 22   1   2 199
 23   1   2 212
 24   1   3   4
 25   1   3  14
 26   1   3  16
 27   1   3  17
 28   1   3  20
 29   1   3  32
 30   1   3  65
 31   1   3  66
 32   1   3  78
 33   1   3  81
 34   1   4   5
 35   1   4   7
 36   1   4  50
 37   1   4  51
 38   1   4  55
 39   1   4  65
 40   1   4  66
 41   1   4  69
 42   1   4 114
 43   1   5   6
 44   1   5   7
 45   1   5   8
 46   1   5  50
 47   1   5  54
 48   1   5  55
 49   1   5 196
 50   1   5 199
 51   1   5 200
 52   1   5 247
 53   1   6   7
 54   1   6   8
 55   1   6   9
 56   1   6  11
 57   1   6  21
 58   1   6  24
 59   1   6  25
 60   1   6 199
 61   1   6 200
 62   1   6 203
 63   1   6 216
 64   1   7   8
 65   1   7  20
 66   1   7  21
 67   1   7  24
 68   1   7  66
 69   1   7  69
 70   1   7  70
 71   1   7  85
 72   1   8   9
 73   1   8  11
 74   1   8  54
 75   1   8  55
 76   1   8  59
 77   1   8  69
 78   1   8  70
 79   1   8  73
 80   1   8 118
 81   1   9  10
 82   1   9  11
 83   1   9  12
 84   1   9  54
 85   1   9  58
 86   1   9  59
 87   1   9 200
 88   1   9 203
 89   1   9 204
 90   1   9 251
 91   1  10  11
 92   1  10  12
 93   1  10  13
 94   1  10  15
 95   1  10  25
 96   1  10  28
 97   1  10  29
 98   1  10 203
 99   1  10 204
100   1  10 207
101   1  10 220
102   1  11  12
103   1  11  24
104   1  11  25
105   1  11  28
106   1  11  70
107   1  11  73
108   1  11  74
109   1  11  89
110   1  12  13
111   1  12  15
112   1  12  58
113   1  12  59
114   1  12  63
115   1  12  73
116   1  12  74
117   1  12  77
118   1  12 122
119   1  13  14
120   1  13  15
121   1  13  16
122   1  13  58
123   1  13  62
124   1  13  63
125   1  13 204
126   1  13 207
127   1  13 208
128   1  13 255
129   1  14  15
130   1  14  16
131   1  14  17
132   1  14  29
133   1  14  32
134   1  14 195
135   1  14 207
136   1  14 208
137   1  14 224
138   1  15  16
139   1  15  28
140   1  15  29
141   1  15  32
142   1  15  74
143   1  15  77
144   1  15  78
145   1  15  93
146   1  16  51
147   1  16  62
148   1  16  63
149   1  16  65
150   1  16  77
151   1  16  78
152   1  16 126
153   1  17  18
154   1  17  19
155   1  17  20
156   1  17  30
157   1  17  32
158   1  17 195
159   1  17 211
160   1  17 212
161   1  17 224
162   1  18  19
163   1  18  20
164   1  18  21
165   1  18  23
166   1  18  33
167   1  18  36
168   1  18  37
169   1  18 211
170   1  18 212
171   1  18 215
172   1  18 228
173   1  19  20
174   1  19  30
175   1  19  32
176   1  19  33
177   1  19  36
178   1  19  48
179   1  19  81
180   1  19  82
181   1  19  94
182   1  19  97
183   1  20  21
184   1  20  23
185   1  20  66
186   1  20  81
187   1  20  82
188   1  20  85
189   1  21  22
190   1  21  23
191   1  21  24
192   1  21 199
193   1  21 212
194   1  21 215
195   1  21 216
196   1  22  23
197   1  22  24
198   1  22  25
199   1  22  27
200   1  22  37
201   1  22  40
202   1  22  41
203   1  22 215
204   1  22 216
205   1  22 219
206   1  22 232
207   1  23  24
208   1  23  36
209   1  23  37
210   1  23  40
211   1  23  82
212   1  23  85
213   1  23  86
214   1  23 101
215   1  24  25
216   1  24  27
217   1  24  70
218   1  24  85
219   1  24  86
220   1  24  89
221   1  25  26
222   1  25  27
223   1  25  28
224   1  25 203
225   1  25 216
226   1  25 219
227   1  25 220
228   1  26  27
229   1  26  28
230   1  26  29
231   1  26  31
232   1  26  41
233   1  26  44
234   1  26  45
235   1  26 219
236   1  26 220
237   1  26 223
238   1  26 236
239   1  27  28
240   1  27  40
241   1  27  41
242   1  27  44
243   1  27  86
244   1  27  89
245   1  27  90
246   1  27 105
247   1  28  29
248   1  28  31
249   1  28  74
250   1  28  89
251   1  28  90
252   1  28  93
253   1  29  30
254   1  29  31
255   1  29  32
256   1  29 207
257   1  29 220
258   1  29 223
259   1  29 224
260   1  30  31
261   1  30  32
262   1  30  33
263   1  30  45
264   1  30  48
265   1  30 211
266   1  30 223
267   1  30 224
268   1  30 240
269   1  31  32
270   1  31  44
271   1  31  45
272   1  31  48
273   1  31  90
274   1  31  93
275   1  31  94
276   1  31 109
277   1  32  78
278   1  32  81
279   1  32  93
280   1  32  94
281   1  33  34
282   1  33  35
283   1  33  36
284   1  33  46
285   1  33  48
286   1  33 211
287   1  33 227
288   1  33 228
289   1  33 240
290   1  34  35
291   1  34  36
292   1  34  37
293   1  34  39
294   1  34  49
295   1  34  52
296   1  34  53
297   1  34 227
298   1  34 228
299   1  34 231
300   1  34 244
301   1  35  36
302   1  35  46
303   1  35  48
304   1  35  49
305   1  35  52
306   1  35  64
307   1  35  97
308   1  35  98
309   1  35 110
310   1  35 113
311   1  36  37
312   1  36  39
313   1  36  82
314   1  36  97
315   1  36  98
316   1  36 101
317   1  37  38
318   1  37  39
319   1  37  40
320   1  37 215
321   1  37 228
322   1  37 231
323   1  37 232
324   1  38  39
325   1  38  40
326   1  38  41
327   1  38  43
328   1  38  53
329   1  38  56
330   1  38  57
331   1  38 231
332   1  38 232
333   1  38 235
334   1  38 248
335   1  39  40
336   1  39  52
337   1  39  53
338   1  39  56
339   1  39  98
340   1  39 101
341   1  39 102
342   1  39 117
343   1  40  41
344   1  40  43
345   1  40  86
346   1  40 101
347   1  40 102
348   1  40 105
349   1  41  42
350   1  41  43
351   1  41  44
352   1  41 219
353   1  41 232
354   1  41 235
355   1  41 236
356   1  42  43
357   1  42  44
358   1  42  45
359   1  42  47
360   1  42  57
361   1  42  60
362   1  42  61
363   1  42 235
364   1  42 236
365   1  42 239
366   1  42 252