3
Lattice="11.0 12.0 13.0 21.0 22.0 23.0 31.0 32.0 33.0" Properties=species:S:1:pos:R:3 energy=-1234.0 pbc="T T T"
Mo      11.00000000      12.00000000      13.00000000
S       21.00000000      22.00000000      23.00000000
Se      31.00000000      32.00000000      33.00000000
