(written by ASE)

27 atoms
3 atom types

54 bonds
1 bond types

189 angles
4 angle types

540 dihedrals
5 dihedral types

0.0                       3  xlo xhi
0.0      2.5980762120000001  ylo yhi
0.0                      40  zlo zhi
                    1.5                       0                       0  xy xz yz

Masses

     1      1.9999999999999993 # M_
     2                       6 # X1
     3      9.9999999999999964 # X1

Atoms # full

     1   1   1   0.0                       0                       0                     0.5
     2   1   2   0.0                     0.5              0.28867514                       1
     3   1   3   0.0                     0.5              0.28867514                       0
     4   1   1   0.0                       1                       0                     0.5
     5   1   2   0.0                     1.5              0.28867514                       1
     6   1   3   0.0                     1.5              0.28867514                       0
     7   1   1   0.0                       2                       0                     0.5
     8   1   2   0.0                     2.5              0.28867514                       1
     9   1   3   0.0                     2.5              0.28867514                       0
    10   1   1   0.0                     0.5     0.86602539999999995                     0.5
    11   1   2   0.0                       1      1.1547005400000001                       1
    12   1   3   0.0                       1      1.1547005400000001                       0
    13   1   1   0.0                     1.5     0.86602539999999995                     0.5
    14   1   2   0.0                       2      1.1547005400000001                       1
    15   1   3   0.0                       2      1.1547005400000001                       0
    16   1   1   0.0                     2.5     0.86602539999999995                     0.5
    17   1   2   0.0                       3      1.1547005400000001                       1
    18   1   3   0.0                       3      1.1547005400000001                       0
    19   1   1   0.0                       1      1.7320508100000001                     0.5
    20   1   2   0.0                     1.5      2.0207259500000001                       1
    21   1   3   0.0                     1.5      2.0207259500000001                       0
    22   1   1   0.0                       2      1.7320508100000001                     0.5
    23   1   2   0.0                     2.5      2.0207259500000001                       1
    24   1   3   0.0                     2.5      2.0207259500000001                       0
    25   1   1   0.0                       3      1.7320508100000001                     0.5
    26   1   2   0.0                     3.5      2.0207259500000001                       1
    27   1   3   0.0                     3.5      2.0207259500000001                       0

Bonds

  1   1   1   2
  2   1   1   3
  3   1   1   8
  4   1   1   9
  5   1   1  20
  6   1   1  21
  7   1   2   4
  8   1   2  10
  9   1   3   4
 10   1   3  10
 11   1   4   5
 12   1   4   6
 13   1   4  23
 14   1   4  24
 15   1   5   7
 16   1   5  13
 17   1   6   7
 18   1   6  13
 19   1   7   8
 20   1   7   9
 21   1   7  26
 22   1   7  27
 23   1   8  16
 24   1   9  16
 25   1  10  11
 26   1  10  12
 27   1  10  17
 28   1  10  18
 29   1  11  13
 30   1  11  19
 31   1  12  13
 32   1  12  19
 33   1  13  14
 34   1  13  15
 35   1  14  16
 36   1  14  22
 37   1  15  16
 38   1  15  22
 39   1  16  17
 40   1  16  18
 41   1  17  25
 42   1  18  25
 43   1  19  20
 44   1  19  21
 45   1  19  26
 46   1  19  27
 47   1  20  22
 48   1  21  22
 49   1  22  23
 50   1  22  24
 51   1  23  25
 52   1  24  25
 53   1  25  26
 54   1  25  27

Angles

  1   3   2   1   3
  2   4   2   1   8
  3   2   2   1   9
  4   4   2   1  20
  5   2   2   1  21
  6   2   3   1   8
  7   4   3   1   9
  8   2   3   1  20
  9   4   3   1  21
 10   3   8   1   9
 11   4   8   1  20
 12   2   8   1  21
 13   2   9   1  20
 14   4   9   1  21
 15   3  20   1  21
 16   1   1   2   4
 17   1   1   2  10
 18   1   4   2  10
 19   1   1   3   4
 20   1   1   3  10
 21   1   4   3  10
 22   3   2   4   3
 23   4   2   4   5
 24   2   2   4   6
 25   4   2   4  23
 26   2   2   4  24
 27   2   3   4   5
 28   4   3   4   6
 29   2   3   4  23
 30   4   3   4  24
 31   3   5   4   6
 32   4   5   4  23
 33   2   5   4  24
 34   2   6   4  23
 35   4   6   4  24
 36   3  23   4  24
 37   1   4   5   7
 38   1   4   5  13
 39   1   7   5  13
 40   1   4   6   7
 41   1   4   6  13
 42   1   7   6  13
 43   3   5   7   6
 44   4   5   7   8
 45   2   5   7   9
 46   4   5   7  26
 47   2   5   7  27
 48   2   6   7   8
 49   4   6   7   9
 50   2   6   7  26
 51   4   6   7  27
 52   3   8   7   9
 53   4   8   7  26
 54   2   8   7  27
 55   2   9   7  26
 56   4   9   7  27
 57   3  26   7  27
 58   1   1   8   7
 59   1   1   8  16
 60   1   7   8  16
 61   1   1   9   7
 62   1   1   9  16
 63   1   7   9  16
 64   3   2  10   3
 65   4   2  10  11
 66   2   2  10  12
 67   4   2  10  17
 68   2   2  10  18
 69   2   3  10  11
 70   4   3  10  12
 71   2   3  10  17
 72   4   3  10  18
 73   3  11  10  12
 74   4  11  10  17
 75   2  11  10  18
 76   2  12  10  17
 77   4  12  10  18
 78   3  17  10  18
 79   1  10  11  13
 80   1  10  11  19
 81   1  13  11  19
 82   1  10  12  13
 83   1  10  12  19
 84   1  13  12  19
 85   3   5  13   6
 86   4   5  13  11
 87   2   5  13  12
 88   4   5  13  14
 89   2   5  13  15
 90   2   6  13  11
 91   4   6  13  12
 92   2   6  13  14
 93   4   6  13  15
 94   3  11  13  12
 95   4  11  13  14
 96   2  11  13  15
 97   2  12  13  14
 98   4  12  13  15
 99   3  14  13  15
100   1  13  14  16
101   1  13  14  22
102   1  16  14  22
103   1  13  15  16
104   1  13  15  22
105   1  16  15  22
106   3   8  16   9
107   4   8  16  14
108   2   8  16  15
109   4   8  16  17
110   2   8  16  18
111   2   9  16  14
112   4   9  16  15
113   2   9  16  17
114   4   9  16  18
115   3  14  16  15
116   4  14  16  17
117   2  14  16  18
118   2  15  16  17
119   4  15  16  18
120   3  17  16  18
121   1  10  17  16
122   1  10  17  25
123   1  16  17  25
124   1  10  18  16
125   1  10  18  25
126   1  16  18  25
127   3  11  19  12
128   4  11  19  20
129   2  11  19  21
130   4  11  19  26
131   2  11  19  27
132   2  12  19  20
133   4  12  19  21
134   2  12  19  26
135   4  12  19  27
136   3  20  19  21
137   4  20  19  26
138   2  20  19  27
139   2  21  19  26
140   4  21  19  27
141   3  26  19  27
142   1   1  20  19
143   1   1  20  22
144   1  19  20  22
145   1   1  21  19
146   1   1  21  22
147   1  19  21  22
148   3  14  22  15
149   4  14  22  20
150   2  14  22  21
151   4  14  22  23
152   2  14  22  24
153   2  15  22  20
154   4  15  22  21
155   2  15  22  23
156   4  15  22  24
157   3  20  22  21
158   4  20  22  23
159   2  20  22  24
160   2  21  22  23
161   4  21  22  24
162   3  23  22  24
163   1   4  23  22
164   1   4  23  25
165   1  22  23  25
166   1   4  24  22
167   1   4  24  25
168   1  22  24  25
169   3  17  25  18
170   4  17  25  23
171   2  17  25  24
172   4  17  25  26
173   2  17  25  27
174   2  18  25  23
175   4  18  25  24
176   2  18  25  26
177   4  18  25  27
178   3  23  25  24
179   4  23  25  26
180   2  23  25  27
181   2  24  25  26
182   4  24  25  27
183   3  26  25  27
184   1   7  26  19
185   1   7  26  25
186   1  19  26  25
187   1   7  27  19
188   1   7  27  25
189   1  19  27  25

Dihedrals

  1   4   1   2   4   3
  2   2   1   2   4   5
  3   1   1   2   4   6
  4   5   1   2   4  23
  5   3   1   2   4  24
  6   4   1   2  10   3
  7   2   1   2  10  11
  8   1   1   2  10  12
  9   5   1   2  10  17
 10   3   1   2  10  18
 11   4   1   3   4   2
 12   1   1   3   4   5
 13   2   1   3   4   6
 14   3   1   3   4  23
 15   5   1   3   4  24
 16   4   1   3  10   2
 17   1   1   3  10  11
 18   2   1   3  10  12
 19   3   1   3  10  17
 20   5   1   3  10  18
 21   4   1   8  16   9
 22   2   1   8  16  14
 23   1   1   8  16  15
 24   5   1   8  16  17
 25   3   1   8  16  18
 26   4   1   9  16   8
 27   1   1   9  16  14
 28   2   1   9  16  15
 29   3   1   9  16  17
 30   5   1   9  16  18
 31   2   1  20  22  14
 32   1   1  20  22  15
 33   4   1  20  22  21
 34   5   1  20  22  23
 35   3   1  20  22  24
 36   1   1  21  22  14
 37   2   1  21  22  15
 38   4   1  21  22  20
 39   3   1  21  22  23
 40   5   1  21  22  24
 41   4   2   1   3   4
 42   4   2   1   3  10
 43   2   2   1   8   7
 44   5   2   1   8  16
 45   1   2   1   9   7
 46   3   2   1   9  16
 47   2   2   1  20  19
 48   5   2   1  20  22
 49   1   2   1  21  19
 50   3   2   1  21  22
 51   2   2   4   5   7
 52   5   2   4   5  13
 53   1   2   4   6   7
 54   3   2   4   6  13
 55   5   2   4  23  22
 56   2   2   4  23  25
 57   3   2   4  24  22
 58   1   2   4  24  25
 59   5   2  10  11  13
 60   2   2  10  11  19
 61   3   2  10  12  13
 62   1   2  10  12  19
 63   5   2  10  17  16
 64   2   2  10  17  25
 65   3   2  10  18  16
 66   1   2  10  18  25
 67   4   3   1   2   4
 68   4   3   1   2  10
 69   1   3   1   8   7
 70   3   3   1   8  16
 71   2   3   1   9   7
 72   5   3   1   9  16
 73   1   3   1  20  19
 74   3   3   1  20  22
 75   2   3   1  21  19
 76   5   3   1  21  22
 77   1   3   4   5   7
 78   3   3   4   5  13
 79   2   3   4   6   7
 80   5   3   4   6  13
 81   3   3   4  23  22
 82   1   3   4  23  25
 83   5   3   4  24  22
 84   2   3   4  24  25
 85   3   3  10  11  13
 86   1   3  10  11  19
 87   5   3  10  12  13
 88   2   3  10  12  19
 89   3   3  10  17  16
 90   1   3  10  17  25
 91   5   3  10  18  16
 92   2   3  10  18  25
 93   4   4   2  10   3
 94   5   4   2  10  11
 95   3   4   2  10  12
 96   2   4   2  10  17
 97   1   4   2  10  18
 98   4   4   3  10   2
 99   3   4   3  10  11
100   5   4   3  10  12
101   1   4   3  10  17
102   2   4   3  10  18
103   4   4   5   7   6
104   2   4   5   7   8
105   1   4   5   7   9
106   5   4   5   7  26
107   3   4   5   7  27
108   4   4   5  13   6
109   5   4   5  13  11
110   3   4   5  13  12
111   2   4   5  13  14
112   1   4   5  13  15
113   4   4   6   7   5
114   1   4   6   7   8
115   2   4   6   7   9
116   3   4   6   7  26
117   5   4   6   7  27
118   4   4   6  13   5
119   3   4   6  13  11
120   5   4   6  13  12
121   1   4   6  13  14
122   2   4   6  13  15
123   2   4  23  25  17
124   1   4  23  25  18
125   4   4  23  25  24
126   5   4  23  25  26
127   3   4  23  25  27
128   1   4  24  25  17
129   2   4  24  25  18
130   4   4  24  25  23
131   3   4  24  25  26
132   5   4  24  25  27
133   4   5   4   6   7
134   4   5   4   6  13
135   2   5   4  23  22
136   5   5   4  23  25
137   1   5   4  24  22
138   3   5   4  24  25
139   2   5   7   8   1
140   5   5   7   8  16
141   1   5   7   9   1
142   3   5   7   9  16
143   2   5   7  26  19
144   5   5   7  26  25
145   1   5   7  27  19
146   3   5   7  27  25
147   5   5  13  14  16
148   2   5  13  14  22
149   3   5  13  15  16
150   1   5  13  15  22
151   4   6   4   5   7
152   4   6   4   5  13
153   1   6   4  23  22
154   3   6   4  23  25
155   2   6   4  24  22
156   5   6   4  24  25
157   1   6   7   8   1
158   3   6   7   8  16
159   2   6   7   9   1
160   5   6   7   9  16
161   1   6   7  26  19
162   3   6   7  26  25
163   2   6   7  27  19
164   5   6   7  27  25
165   3   6  13  14  16
166   1   6  13  14  22
167   5   6  13  15  16
168   2   6  13  15  22
169   4   7   5  13   6
170   2   7   5  13  11
171   1   7   5  13  12
172   5   7   5  13  14
173   3   7   5  13  15
174   4   7   6  13   5
175   1   7   6  13  11
176   2   7   6  13  12
177   3   7   6  13  14
178   5   7   6  13  15
179   4   7   8  16   9
180   5   7   8  16  14
181   3   7   8  16  15
182   2   7   8  16  17
183   1   7   8  16  18
184   4   7   9  16   8
185   3   7   9  16  14
186   5   7   9  16  15
187   1   7   9  16  17
188   2   7   9  16  18
189   2   8   1   2   4
190   5   8   1   2  10
191   1   8   1   3   4
192   3   8   1   3  10
193   4   8   1   9   7
194   4   8   1   9  16
195   5   8   1  20  19
196   2   8   1  20  22
197   3   8   1  21  19
198   1   8   1  21  22
199   4   8   7   9   1
200   4   8   7   9  16
201   5   8   7  26  19
202   2   8   7  26  25
203   3   8   7  27  19
204   1   8   7  27  25
205   5   8  16  17  10
206   2   8  16  17  25
207   3   8  16  18  10
208   1   8  16  18  25
209   1   9   1   2   4
210   3   9   1   2  10
211   2   9   1   3   4
212   5   9   1   3  10
213   4   9   1   8   7
214   4   9   1   8  16
215   3   9   1  20  19
216   1   9   1  20  22
217   5   9   1  21  19
218   2   9   1  21  22
219   4   9   7   8   1
220   4   9   7   8  16
221   3   9   7  26  19
222   1   9   7  26  25
223   5   9   7  27  19
224   2   9   7  27  25
225   3   9  16  17  10
226   1   9  16  17  25
227   5   9  16  18  10
228   2   9  16  18  25
229   4  10   2   4   3
230   5  10   2   4   5
231   3  10   2   4   6
232   2  10   2   4  23
233   1  10   2   4  24
234   4  10   3   4   2
235   3  10   3   4   5
236   5  10   3   4   6
237   1  10   3   4  23
238   2  10   3   4  24
239   5  10  11  13   5
240   3  10  11  13   6
241   4  10  11  13  12
242   2  10  11  13  14
243   1  10  11  13  15
244   4  10  11  19  12
245   2  10  11  19  20
246   1  10  11  19  21
247   5  10  11  19  26
248   3  10  11  19  27
249   3  10  12  13   5
250   5  10  12  13   6
251   4  10  12  13  11
252   1  10  12  13  14
253   2  10  12  13  15
254   4  10  12  19  11
255   1  10  12  19  20
256   2  10  12  19  21
257   3  10  12  19  26
258   5  10  12  19  27
259   4  10  17  25  18
260   2  10  17  25  23
261   1  10  17  25  24
262   5  10  17  25  26
263   3  10  17  25  27
264   4  10  18  25  17
265   1  10  18  25  23
266   2  10  18  25  24
267   3  10  18  25  26
268   5  10  18  25  27
269   4  11  10  12  13
270   4  11  10  12  19
271   2  11  10  17  16
272   5  11  10  17  25
273   1  11  10  18  16
274   3  11  10  18  25
275   2  11  13  14  16
276   5  11  13  14  22
277   1  11  13  15  16
278   3  11  13  15  22
279   2  11  19  20   1
280   5  11  19  20  22
281   1  11  19  21   1
282   3  11  19  21  22
283   2  11  19  26   7
284   5  11  19  26  25
285   1  11  19  27   7
286   3  11  19  27  25
287   4  12  10  11  13
288   4  12  10  11  19
289   1  12  10  17  16
290   3  12  10  17  25
291   2  12  10  18  16
292   5  12  10  18  25
293   1  12  13  14  16
294   3  12  13  14  22
295   2  12  13  15  16
296   5  12  13  15  22
297   1  12  19  20   1
298   3  12  19  20  22
299   2  12  19  21   1
300   5  12  19  21  22
301   1  12  19  26   7
302   3  12  19  26  25
303   2  12  19  27   7
304   5  12  19  27  25
305   4  13   5   7   6
306   5  13   5   7   8
307   3  13   5   7   9
308   2  13   5   7  26
309   1  13   5   7  27
310   4  13   6   7   5
311   3  13   6   7   8
312   5  13   6   7   9
313   1  13   6   7  26
314   2  13   6   7  27
315   4  13  11  19  12
316   5  13  11  19  20
317   3  13  11  19  21
318   2  13  11  19  26
319   1  13  11  19  27
320   4  13  12  19  11
321   3  13  12  19  20
322   5  13  12  19  21
323   1  13  12  19  26
324   2  13  12  19  27
325   5  13  14  16   8
326   3  13  14  16   9
327   4  13  14  16  15
328   2  13  14  16  17
329   1  13  14  16  18
330   4  13  14  22  15
331   5  13  14  22  20
332   3  13  14  22  21
333   2  13  14  22  23
334   1  13  14  22  24
335   3  13  15  16   8
336   5  13  15  16   9
337   4  13  15  16  14
338   1  13  15  16  17
339   2  13  15  16  18
340   4  13  15  22  14
341   3  13  15  22  20
342   5  13  15  22  21
343   1  13  15  22  23
344   2  13  15  22  24
345   4  14  13  15  16
346   4  14  13  15  22
347   2  14  16  17  10
348   5  14  16  17  25
349   1  14  16  18  10
350   3  14  16  18  25
351   2  14  22  23   4
352   5  14  22  23  25
353   1  14  22  24   4
354   3  14  22  24  25
355   4  15  13  14  16
356   4  15  13  14  22
357   1  15  16  17  10
358   3  15  16  17  25
359   2  15  16  18  10
360   5  15  16  18  25
361   1  15  22  23   4
362   3  15  22  23  25
363   2  15  22  24   4
364   5  15  22  24  25
365   4  16  14  22  15
366   2  16  14  22  20
367   1  16  14  22  21
368   5  16  14  22  23
369   3  16  14  22  24
370   4  16  15  22  14
371   1  16  15  22  20
372   2  16  15  22  21
373   3  16  15  22  23
374   5  16  15  22  24
375   4  16  17  25  18
376   5  16  17  25  23
377   3  16  17  25  24
378   2  16  17  25  26
379   1  16  17  25  27
380   4  16  18  25  17
381   3  16  18  25  23
382   5  16  18  25  24
383   1  16  18  25  26
384   2  16  18  25  27
385   2  17  10  11  13
386   5  17  10  11  19
387   1  17  10  12  13
388   3  17  10  12  19
389   4  17  10  18  16
390   4  17  10  18  25
391   4  17  16  18  10
392   4  17  16  18  25
393   2  17  25  26   7
394   5  17  25  26  19
395   1  17  25  27   7
396   3  17  25  27  19
397   1  18  10  11  13
398   3  18  10  11  19
399   2  18  10  12  13
400   5  18  10  12  19
401   4  18  10  17  16
402   4  18  10  17  25
403   4  18  16  17  10
404   4  18  16  17  25
405   1  18  25  26   7
406   3  18  25  26  19
407   2  18  25  27   7
408   5  18  25  27  19
409   2  19  11  13   5
410   1  19  11  13   6
411   4  19  11  13  12
412   5  19  11  13  14
413   3  19  11  13  15
414   1  19  12  13   5
415   2  19  12  13   6
416   4  19  12  13  11
417   3  19  12  13  14
418   5  19  12  13  15
419   5  19  20  22  14
420   3  19  20  22  15
421   4  19  20  22  21
422   2  19  20  22  23
423   1  19  20  22  24
424   3  19  21  22  14
425   5  19  21  22  15
426   4  19  21  22  20
427   1  19  21  22  23
428   2  19  21  22  24
429   5  20   1   2   4
430   2  20   1   2  10
431   3  20   1   3   4
432   1  20   1   3  10
433   5  20   1   8   7
434   2  20   1   8  16
435   3  20   1   9   7
436   1  20   1   9  16
437   4  20   1  21  19
438   4  20   1  21  22
439   4  20  19  21   1
440   4  20  19  21  22
441   5  20  19  26   7
442   2  20  19  26  25
443   3  20  19  27   7
444   1  20  19  27  25
445   5  20  22  23   4
446   2  20  22  23  25
447   3  20  22  24   4
448   1  20  22  24  25
449   3  21   1   2   4
450   1  21   1   2  10
451   5  21   1   3   4
452   2  21   1   3  10
453   3  21   1   8   7
454   1  21   1   8  16
455   5  21   1   9   7
456   2  21   1   9  16
457   4  21   1  20  19
458   4  21   1  20  22
459   4  21  19  20   1
460   4  21  19  20  22
461   3  21  19  26   7
462   1  21  19  26  25
463   5  21  19  27   7
464   2  21  19  27  25
465   3  21  22  23   4
466   1  21  22  23  25
467   5  21  22  24   4
468   2  21  22  24  25
469   2  22  14  16   8
470   1  22  14  16   9
471   4  22  14  16  15
472   5  22  14  16  17
473   3  22  14  16  18
474   1  22  15  16   8
475   2  22  15  16   9
476   4  22  15  16  14
477   3  22  15  16  17
478   5  22  15  16  18
479   5  22  23  25  17
480   3  22  23  25  18
481   4  22  23  25  24
482   2  22  23  25  26
483   1  22  23  25  27
484   3  22  24  25  17
485   5  22  24  25  18
486   4  22  24  25  23
487   1  22  24  25  26
488   2  22  24  25  27
489   5  23   4   5   7
490   2  23   4   5  13
491   3  23   4   6   7
492   1  23   4   6  13
493   4  23   4  24  22
494   4  23   4  24  25
495   4  23  22  24   4
496   4  23  22  24  25
497   5  23  25  26   7
498   2  23  25  26  19
499   3  23  25  27   7
500   1  23  25  27  19
501   3  24   4   5   7
502   1  24   4   5  13
503   5  24   4   6   7
504   2  24   4   6  13
505   4  24   4  23  22
506   4  24   4  23  25
507   4  24  22  23   4
508   4  24  22  23  25
509   3  24  25  26   7
510   1  24  25  26  19
511   5  24  25  27   7
512   2  24  25  27  19
513   5  26   7   8   1
514   2  26   7   8  16
515   3  26   7   9   1
516   1  26   7   9  16
517   4  26   7  27  19
518   4  26   7  27  25
519   5  26  19  20   1
520   2  26  19  20  22
521   3  26  19  21   1
522   1  26  19  21  22
523   4  26  19  27   7
524   4  26  19  27  25
525   4  26  25  27   7
526   4  26  25  27  19
527   3  27   7   8   1
528   1  27   7   8  16
529   5  27   7   9   1
530   2  27   7   9  16
531   4  27   7  26  19
532   4  27   7  26  25
533   3  27  19  20   1
534   1  27  19  20  22
535   5  27  19  21   1
536   2  27  19  21  22
537   4  27  19  26   7
538   4  27  19  26  25
539   4  27  25  26   7
540   4  27  25  26  19
