192
Lattice="10.861899556810426 0.0 0.0 0.0 16.292849335215642 0.0 0.00021723799113620854 0.0 21.723799113620853" Properties=species:S:1:pos:R:3:masses:R:1:momenta:R:3:id:I:1:type:I:1 comment="LAMMPS data file via write_data, version 2 Aug 2023, timestep = 4, units = metal" pbc="T T T"
X       -0.00094980      -0.00142467      -0.00189956       0.00000000       0.00000000       0.00000000       0.00000000        1        1
X       -0.00092264       2.71405022       2.71357533       0.00000000       0.00000000       0.00000000       0.00000000        2        1
X        2.71455225      -0.00142467       2.71357533       0.00000000       0.00000000       0.00000000       0.00000000        3        1
X        2.71452509       2.71405022      -0.00189956       0.00000000       0.00000000       0.00000000       0.00000000        4        1
X        1.35680122       1.35631278       1.35583789       0.00000000       0.00000000       0.00000000       0.00000000        5        1
X        1.35682838       4.07178767       4.07131278       0.00000000       0.00000000       0.00000000       0.00000000        6        1
X        4.07230327       1.35631278       4.07131278       0.00000000       0.00000000       0.00000000       0.00000000        7        1
X        4.07227611       4.07178767       1.35583789       0.00000000       0.00000000       0.00000000       0.00000000        8        1
X        5.42999998      -0.00142467      -0.00189956       0.00000000       0.00000000       0.00000000       0.00000000        9        1
X        5.43002714       2.71405022       2.71357533       0.00000000       0.00000000       0.00000000       0.00000000       10        1
X        8.14550202      -0.00142467       2.71357533       0.00000000       0.00000000       0.00000000       0.00000000       11        1
X        8.14547487       2.71405022      -0.00189956       0.00000000       0.00000000       0.00000000       0.00000000       12        1
X        6.78775100       1.35631278       1.35583789       0.00000000       0.00000000       0.00000000       0.00000000       13        1
X        6.78777816       4.07178767       4.07131278       0.00000000       0.00000000       0.00000000       0.00000000       14        1
X        9.50325305       1.35631278       4.07131278       0.00000000       0.00000000       0.00000000       0.00000000       15        1
X        9.50322589       4.07178767       1.35583789       0.00000000       0.00000000       0.00000000       0.00000000       16        1
X       -0.00094980       5.42952511      -0.00189956       0.00000000       0.00000000       0.00000000       0.00000000       17        1
X       -0.00092264       8.14500000       2.71357533       0.00000000       0.00000000       0.00000000       0.00000000       18        1
X        2.71455225       5.42952511       2.71357533       0.00000000       0.00000000       0.00000000       0.00000000       19        1
X        2.71452509       8.14500000      -0.00189956       0.00000000       0.00000000       0.00000000       0.00000000       20        1
X        1.35680122       6.78726256       1.35583789       0.00000000       0.00000000       0.00000000       0.00000000       21        1
X        1.35682838       9.50273744       4.07131278       0.00000000       0.00000000       0.00000000       0.00000000       22        1
X        4.07230327       6.78726256       4.07131278       0.00000000       0.00000000       0.00000000       0.00000000       23        1
X        4.07227611       9.50273744       1.35583789       0.00000000       0.00000000       0.00000000       0.00000000       24        1
X        5.42999998       5.42952511      -0.00189956       0.00000000       0.00000000       0.00000000       0.00000000       25        1
X        5.43002714       8.14500000       2.71357533       0.00000000       0.00000000       0.00000000       0.00000000       26        1
X        8.14550202       5.42952511       2.71357533       0.00000000       0.00000000       0.00000000       0.00000000       27        1
X        8.14547487       8.14500000      -0.00189956       0.00000000       0.00000000       0.00000000       0.00000000       28        1
X        6.78775100       6.78726256       1.35583789       0.00000000       0.00000000       0.00000000       0.00000000       29        1
X        6.78777816       9.50273744       4.07131278       0.00000000       0.00000000       0.00000000       0.00000000       30        1
X        9.50325305       6.78726256       4.07131278       0.00000000       0.00000000       0.00000000       0.00000000       31        1
X        9.50322589       9.50273744       1.35583789       0.00000000       0.00000000       0.00000000       0.00000000       32        1
X       -0.00094980      10.86047489      -0.00189956       0.00000000       0.00000000       0.00000000       0.00000000       33        1
X       -0.00092264      13.57594978       2.71357533       0.00000000       0.00000000       0.00000000       0.00000000       34        1
X        2.71455225      10.86047489       2.71357533       0.00000000       0.00000000       0.00000000       0.00000000       35        1
X        2.71452509      13.57594978      -0.00189956       0.00000000       0.00000000       0.00000000       0.00000000       36        1
X        1.35680122      12.21821233       1.35583789       0.00000000       0.00000000       0.00000000       0.00000000       37        1
X        1.35682838      14.93368722       4.07131278       0.00000000       0.00000000       0.00000000       0.00000000       38        1
X        4.07230327      12.21821233       4.07131278       0.00000000       0.00000000       0.00000000       0.00000000       39        1
X        4.07227611      14.93368722       1.35583789       0.00000000       0.00000000       0.00000000       0.00000000       40        1
X        5.42999998      10.86047489      -0.00189956       0.00000000       0.00000000       0.00000000       0.00000000       41        1
X        5.43002714      13.57594978       2.71357533       0.00000000       0.00000000       0.00000000       0.00000000       42        1
X        8.14550202      10.86047489       2.71357533       0.00000000       0.00000000       0.00000000       0.00000000       43        1
X        8.14547487      13.57594978      -0.00189956       0.00000000       0.00000000       0.00000000       0.00000000       44        1
X        6.78775100      12.21821233       1.35583789       0.00000000       0.00000000       0.00000000       0.00000000       45        1
X        6.78777816      14.93368722       4.07131278       0.00000000       0.00000000       0.00000000       0.00000000       46        1
X        9.50325305      12.21821233       4.07131278       0.00000000       0.00000000       0.00000000       0.00000000       47        1
X        9.50322589      14.93368722       1.35583789       0.00000000       0.00000000       0.00000000       0.00000000       48        1
X       -0.00089549      -0.00142467       5.42905022       0.00000000       0.00000000       0.00000000       0.00000000       49        1
X       -0.00086833       2.71405022       8.14452511       0.00000000       0.00000000       0.00000000       0.00000000       50        1
X        2.71460656      -0.00142467       8.14452511       0.00000000       0.00000000       0.00000000       0.00000000       51        1
X        2.71457940       2.71405022       5.42905022       0.00000000       0.00000000       0.00000000       0.00000000       52        1
X        1.35685553       1.35631278       6.78678767       0.00000000       0.00000000       0.00000000       0.00000000       53        1
X        1.35688269       4.07178767       9.50226256       0.00000000       0.00000000       0.00000000       0.00000000       54        1
X        4.07235758       1.35631278       9.50226256       0.00000000       0.00000000       0.00000000       0.00000000       55        1
X        4.07233042       4.07178767       6.78678767       0.00000000       0.00000000       0.00000000       0.00000000       56        1
X        5.43005429      -0.00142467       5.42905022       0.00000000       0.00000000       0.00000000       0.00000000       57        1
X        5.43008145       2.71405022       8.14452511       0.00000000       0.00000000       0.00000000       0.00000000       58        1
X        8.14555633      -0.00142467       8.14452511       0.00000000       0.00000000       0.00000000       0.00000000       59        1
X        8.14552918       2.71405022       5.42905022       0.00000000       0.00000000       0.00000000       0.00000000       60        1
X        6.78780531       1.35631278       6.78678767       0.00000000       0.00000000       0.00000000       0.00000000       61        1
X        6.78783247       4.07178767       9.50226256       0.00000000       0.00000000       0.00000000       0.00000000       62        1
X        9.50330736       1.35631278       9.50226256       0.00000000       0.00000000       0.00000000       0.00000000       63        1
X        9.50328020       4.07178767       6.78678767       0.00000000       0.00000000       0.00000000       0.00000000       64        1
X       -0.00089549       5.42952511       5.42905022       0.00000000       0.00000000       0.00000000       0.00000000       65        1
X       -0.00086833       8.14500000       8.14452511       0.00000000       0.00000000       0.00000000       0.00000000       66        1
X        2.71460656       5.42952511       8.14452511       0.00000000       0.00000000       0.00000000       0.00000000       67        1
X        2.71457940       8.14500000       5.42905022       0.00000000       0.00000000       0.00000000       0.00000000       68        1
X        1.35685553       6.78726256       6.78678767       0.00000000       0.00000000       0.00000000       0.00000000       69        1
X        1.35688269       9.50273744       9.50226256       0.00000000       0.00000000       0.00000000       0.00000000       70        1
X        4.07235758       6.78726256       9.50226256       0.00000000       0.00000000       0.00000000       0.00000000       71        1
X        4.07233042       9.50273744       6.78678767       0.00000000       0.00000000       0.00000000       0.00000000       72        1
X        5.43005429       5.42952511       5.42905022       0.00000000       0.00000000       0.00000000       0.00000000       73        1
X        5.43008145       8.14500000       8.14452511       0.00000000       0.00000000       0.00000000       0.00000000       74        1
X        8.14555633       5.42952511       8.14452511       0.00000000       0.00000000       0.00000000       0.00000000       75        1
X        8.14552918       8.14500000       5.42905022       0.00000000       0.00000000       0.00000000       0.00000000       76        1
X        6.78780531       6.78726256       6.78678767       0.00000000       0.00000000       0.00000000       0.00000000       77        1
X        6.78783247       9.50273744       9.50226256       0.00000000       0.00000000       0.00000000       0.00000000       78        1
X        9.50330736       6.78726256       9.50226256       0.00000000       0.00000000       0.00000000       0.00000000       79        1
X        9.50328020       9.50273744       6.78678767       0.00000000       0.00000000       0.00000000       0.00000000       80        1
X       -0.00089549      10.86047489       5.42905022       0.00000000       0.00000000       0.00000000       0.00000000       81        1
X       -0.00086833      13.57594978       8.14452511       0.00000000       0.00000000       0.00000000       0.00000000       82        1
X        2.71460656      10.86047489       8.14452511       0.00000000       0.00000000       0.00000000       0.00000000       83        1
X        2.71457940      13.57594978       5.42905022       0.00000000       0.00000000       0.00000000       0.00000000       84        1
X        1.35685553      12.21821233       6.78678767       0.00000000       0.00000000       0.00000000       0.00000000       85        1
X        1.35688269      14.93368722       9.50226256       0.00000000       0.00000000       0.00000000       0.00000000       86        1
X        4.07235758      12.21821233       9.50226256       0.00000000       0.00000000       0.00000000       0.00000000       87        1
X        4.07233042      14.93368722       6.78678767       0.00000000       0.00000000       0.00000000       0.00000000       88        1
X        5.43005429      10.86047489       5.42905022       0.00000000       0.00000000       0.00000000       0.00000000       89        1
X        5.43008145      13.57594978       8.14452511       0.00000000       0.00000000       0.00000000       0.00000000       90        1
X        8.14555633      10.86047489       8.14452511       0.00000000       0.00000000       0.00000000       0.00000000       91        1
X        8.14552918      13.57594978       5.42905022       0.00000000       0.00000000       0.00000000       0.00000000       92        1
X        6.78780531      12.21821233       6.78678767       0.00000000       0.00000000       0.00000000       0.00000000       93        1
X        6.78783247      14.93368722       9.50226256       0.00000000       0.00000000       0.00000000       0.00000000       94        1
X        9.50330736      12.21821233       9.50226256       0.00000000       0.00000000       0.00000000       0.00000000       95        1
X        9.50328020      14.93368722       6.78678767       0.00000000       0.00000000       0.00000000       0.00000000       96        1
X       -0.00084118      -0.00142467      10.86000000       0.00000000       0.00000000       0.00000000       0.00000000       97        1
X       -0.00081402       2.71405022      13.57547489       0.00000000       0.00000000       0.00000000       0.00000000       98        1
X        2.71466087      -0.00142467      13.57547489       0.00000000       0.00000000       0.00000000       0.00000000       99        1
X        2.71463371       2.71405022      10.86000000       0.00000000       0.00000000       0.00000000       0.00000000      100        1
X        1.35690984       1.35631278      12.21773744       0.00000000       0.00000000       0.00000000       0.00000000      101        1
X        1.35693700       4.07178767      14.93321233       0.00000000       0.00000000       0.00000000       0.00000000      102        1
X        4.07241189       1.35631278      14.93321233       0.00000000       0.00000000       0.00000000       0.00000000      103        1
X        4.07238473       4.07178767      12.21773744       0.00000000       0.00000000       0.00000000       0.00000000      104        1
X        5.43010860      -0.00142467      10.86000000       0.00000000       0.00000000       0.00000000       0.00000000      105        1
X        5.43013575       2.71405022      13.57547489       0.00000000       0.00000000       0.00000000       0.00000000      106        1
X        8.14561064      -0.00142467      13.57547489       0.00000000       0.00000000       0.00000000       0.00000000      107        1
X        8.14558349       2.71405022      10.86000000       0.00000000       0.00000000       0.00000000       0.00000000      108        1
X        6.78785962       1.35631278      12.21773744       0.00000000       0.00000000       0.00000000       0.00000000      109        1
X        6.78788678       4.07178767      14.93321233       0.00000000       0.00000000       0.00000000       0.00000000      110        1
X        9.50336167       1.35631278      14.93321233       0.00000000       0.00000000       0.00000000       0.00000000      111        1
X        9.50333451       4.07178767      12.21773744       0.00000000       0.00000000       0.00000000       0.00000000      112        1
X       -0.00084118       5.42952511      10.86000000       0.00000000       0.00000000       0.00000000       0.00000000      113        1
X       -0.00081402       8.14500000      13.57547489       0.00000000       0.00000000       0.00000000       0.00000000      114        1
X        2.71466087       5.42952511      13.57547489       0.00000000       0.00000000       0.00000000       0.00000000      115        1
X        2.71463371       8.14500000      10.86000000       0.00000000       0.00000000       0.00000000       0.00000000      116        1
X        1.35690984       6.78726256      12.21773744       0.00000000       0.00000000       0.00000000       0.00000000      117        1
X        1.35693700       9.50273744      14.93321233       0.00000000       0.00000000       0.00000000       0.00000000      118        1
X        4.07241189       6.78726256      14.93321233       0.00000000       0.00000000       0.00000000       0.00000000      119        1
X        4.07238473       9.50273744      12.21773744       0.00000000       0.00000000       0.00000000       0.00000000      120        1
X        5.43010860       5.42952511      10.86000000       0.00000000       0.00000000       0.00000000       0.00000000      121        1
X        5.43013575       8.14500000      13.57547489       0.00000000       0.00000000       0.00000000       0.00000000      122        1
X        8.14561064       5.42952511      13.57547489       0.00000000       0.00000000       0.00000000       0.00000000      123        1
X        8.14558349       8.14500000      10.86000000       0.00000000       0.00000000       0.00000000       0.00000000      124        1
X        6.78785962       6.78726256      12.21773744       0.00000000       0.00000000       0.00000000       0.00000000      125        1
X        6.78788678       9.50273744      14.93321233       0.00000000       0.00000000       0.00000000       0.00000000      126        1
X        9.50336167       6.78726256      14.93321233       0.00000000       0.00000000       0.00000000       0.00000000      127        1
X        9.50333451       9.50273744      12.21773744       0.00000000       0.00000000       0.00000000       0.00000000      128        1
X       -0.00084118      10.86047489      10.86000000       0.00000000       0.00000000       0.00000000       0.00000000      129        1
X       -0.00081402      13.57594978      13.57547489       0.00000000       0.00000000       0.00000000       0.00000000      130        1
X        2.71466087      10.86047489      13.57547489       0.00000000       0.00000000       0.00000000       0.00000000      131        1
X        2.71463371      13.57594978      10.86000000       0.00000000       0.00000000       0.00000000       0.00000000      132        1
X        1.35690984      12.21821233      12.21773744       0.00000000       0.00000000       0.00000000       0.00000000      133        1
X        1.35693700      14.93368722      14.93321233       0.00000000       0.00000000       0.00000000       0.00000000      134        1
X        4.07241189      12.21821233      14.93321233       0.00000000       0.00000000       0.00000000       0.00000000      135        1
X        4.07238473      14.93368722      12.21773744       0.00000000       0.00000000       0.00000000       0.00000000      136        1
X        5.43010860      10.86047489      10.86000000       0.00000000       0.00000000       0.00000000       0.00000000      137        1
X        5.43013575      13.57594978      13.57547489       0.00000000       0.00000000       0.00000000       0.00000000      138        1
X        8.14561064      10.86047489      13.57547489       0.00000000       0.00000000       0.00000000       0.00000000      139        1
X        8.14558349      13.57594978      10.86000000       0.00000000       0.00000000       0.00000000       0.00000000      140        1
X        6.78785962      12.21821233      12.21773744       0.00000000       0.00000000       0.00000000       0.00000000      141        1
X        6.78788678      14.93368722      14.93321233       0.00000000       0.00000000       0.00000000       0.00000000      142        1
X        9.50336167      12.21821233      14.93321233       0.00000000       0.00000000       0.00000000       0.00000000      143        1
X        9.50333451      14.93368722      12.21773744       0.00000000       0.00000000       0.00000000       0.00000000      144        1
X       -0.00078687      -0.00142467      16.29094978       0.00000000       0.00000000       0.00000000       0.00000000      145        1
X       -0.00075971       2.71405022      19.00642467       0.00000000       0.00000000       0.00000000       0.00000000      146        1
X        2.71471518      -0.00142467      19.00642467       0.00000000       0.00000000       0.00000000       0.00000000      147        1
X        2.71468802       2.71405022      16.29094978       0.00000000       0.00000000       0.00000000       0.00000000      148        1
X        1.35696415       1.35631278      17.64868722       0.00000000       0.00000000       0.00000000       0.00000000      149        1
X        1.35699131       4.07178767      20.36416211       0.00000000       0.00000000       0.00000000       0.00000000      150        1
X        4.07246620       1.35631278      20.36416211       0.00000000       0.00000000       0.00000000       0.00000000      151        1
X        4.07243904       4.07178767      17.64868722       0.00000000       0.00000000       0.00000000       0.00000000      152        1
X        5.43016291      -0.00142467      16.29094978       0.00000000       0.00000000       0.00000000       0.00000000      153        1
X        5.43019006       2.71405022      19.00642467       0.00000000       0.00000000       0.00000000       0.00000000      154        1
X        8.14566495      -0.00142467      19.00642467       0.00000000       0.00000000       0.00000000       0.00000000      155        1
X        8.14563780       2.71405022      16.29094978       0.00000000       0.00000000       0.00000000       0.00000000      156        1
X        6.78791393       1.35631278      17.64868722       0.00000000       0.00000000       0.00000000       0.00000000      157        1
X        6.78794109       4.07178767      20.36416211       0.00000000       0.00000000       0.00000000       0.00000000      158        1
X        9.50341598       1.35631278      20.36416211       0.00000000       0.00000000       0.00000000       0.00000000      159        1
X        9.50338882       4.07178767      17.64868722       0.00000000       0.00000000       0.00000000       0.00000000      160        1
X       -0.00078687       5.42952511      16.29094978       0.00000000       0.00000000       0.00000000       0.00000000      161        1
X       -0.00075971       8.14500000      19.00642467       0.00000000       0.00000000       0.00000000       0.00000000      162        1
X        2.71471518       5.42952511      19.00642467       0.00000000       0.00000000       0.00000000       0.00000000      163        1
X        2.71468802       8.14500000      16.29094978       0.00000000       0.00000000       0.00000000       0.00000000      164        1
X        1.35696415       6.78726256      17.64868722       0.00000000       0.00000000       0.00000000       0.00000000      165        1
X        1.35699131       9.50273744      20.36416211       0.00000000       0.00000000       0.00000000       0.00000000      166        1
X        4.07246620       6.78726256      20.36416211       0.00000000       0.00000000       0.00000000       0.00000000      167        1
X        4.07243904       9.50273744      17.64868722       0.00000000       0.00000000       0.00000000       0.00000000      168        1
X        5.43016291       5.42952511      16.29094978       0.00000000       0.00000000       0.00000000       0.00000000      169        1
X        5.43019006       8.14500000      19.00642467       0.00000000       0.00000000       0.00000000       0.00000000      170        1
X        8.14566495       5.42952511      19.00642467       0.00000000       0.00000000       0.00000000       0.00000000      171        1
X        8.14563780       8.14500000      16.29094978       0.00000000       0.00000000       0.00000000       0.00000000      172        1
X        6.78791393       6.78726256      17.64868722       0.00000000       0.00000000       0.00000000       0.00000000      173        1
X        6.78794109       9.50273744      20.36416211       0.00000000       0.00000000       0.00000000       0.00000000      174        1
X        9.50341598       6.78726256      20.36416211       0.00000000       0.00000000       0.00000000       0.00000000      175        1
X        9.50338882       9.50273744      17.64868722       0.00000000       0.00000000       0.00000000       0.00000000      176        1
X       -0.00078687      10.86047489      16.29094978       0.00000000       0.00000000       0.00000000       0.00000000      177        1
X       -0.00075971      13.57594978      19.00642467       0.00000000       0.00000000       0.00000000       0.00000000      178        1
X        2.71471518      10.86047489      19.00642467       0.00000000       0.00000000       0.00000000       0.00000000      179        1
X        2.71468802      13.57594978      16.29094978       0.00000000       0.00000000       0.00000000       0.00000000      180        1
X        1.35696415      12.21821233      17.64868722       0.00000000       0.00000000       0.00000000       0.00000000      181        1
X        1.35699131      14.93368722      20.36416211       0.00000000       0.00000000       0.00000000       0.00000000      182        1
X        4.07246620      12.21821233      20.36416211       0.00000000       0.00000000       0.00000000       0.00000000      183        1
X        4.07243904      14.93368722      17.64868722       0.00000000       0.00000000       0.00000000       0.00000000      184        1
X        5.43016291      10.86047489      16.29094978       0.00000000       0.00000000       0.00000000       0.00000000      185        1
X        5.43019006      13.57594978      19.00642467       0.00000000       0.00000000       0.00000000       0.00000000      186        1
X        8.14566495      10.86047489      19.00642467       0.00000000       0.00000000       0.00000000       0.00000000      187        1
X        8.14563780      13.57594978      16.29094978       0.00000000       0.00000000       0.00000000       0.00000000      188        1
X        6.78791393      12.21821233      17.64868722       0.00000000       0.00000000       0.00000000       0.00000000      189        1
X        6.78794109      14.93368722      20.36416211       0.00000000       0.00000000       0.00000000       0.00000000      190        1
X        9.50341598      12.21821233      20.36416211       0.00000000       0.00000000       0.00000000       0.00000000      191        1
X        9.50338882      14.93368722      17.64868722       0.00000000       0.00000000       0.00000000       0.00000000      192        1
