3
Lattice="3.1989482918852916 -0.0 0.0 1.5994741363639602 2.7703704049879736 0.0 0.0 0.0 12.73104751283661" Properties=species:S:1:pos:R:3:forces:R:3 energy=-758.425781843113 virial="-0.010359109532904896 0.0 0.0 0.0 -0.010359109532904896 -0.0 0.0 -0.0 -0.04433698880083295" stress="-145.18171400458473 0.0 0.0 0.0 -145.18171400458473 -0.0 0.0 -0.0 -621.3777359396227" job_done=T pbc="T T T"
Mo      -0.00096332       0.00488984       0.05446964       0.00000026       0.00000026      -0.00004988
S        1.59850542       0.92834360       1.58428981      -0.00000000      -0.00000000       0.00008742
Se       1.59850543       0.92834347      -1.63875945      -0.00000000      -0.00000026      -0.00003754
