# LAMMPS data file

2 atoms
2 atom types

0	2.514591362	xlo xhi
0	2.1777		ylo yhi
0	6.661		zlo zhi
1.257295681	0	0	xy xz yz

Masses

1      10.811 # B
2      14.0067 # N

Atoms

1	1	1	0	0	0	0	#	B
2	1	2	0	1.257295681	0.7259	0	#	N
