(written by ASE)

40 atoms
2 atom types

60 bonds
1 bond types

120 angles
2 angle types

0.0      12.572956810000001  xlo xhi
0.0      8.7108000000000008  ylo yhi
0.0      6.6609999999999996  zlo zhi
            5.029182724                       0                       0  xy xz yz

Masses

     1                  10.811 # B
     2      14.006699999999997 # N

Atoms # full

     1   1   1   0.0                       0                       0                       0
     2   1   2   0.0      1.2572956799999999     0.72589999999999977                       0
     3   1   1   0.0      2.5145913599999998 -3.6629819821477083e-16                       0
     4   1   2   0.0      3.7718870400000002     0.72589999999999955                       0
     5   1   1   0.0      5.0291827199999997 -7.3259639642954166e-16                       0
     6   1   2   0.0               6.2864784      0.7258999999999991                       0
     7   1   1   0.0      7.5437740900000003 -1.0988945961010035e-15                       0
     8   1   2   0.0      8.8010697699999998     0.72589999999999866                       0
     9   1   1   0.0             10.05836545 -1.4651927943157741e-15                       0
    10   1   2   0.0      11.315661130000001     0.72589999999999844                       0
    11   1   1   0.0      1.2572956799999999      2.1777000000000002                       0
    12   1   2   0.0      2.5145913599999998                  2.9036                       0
    13   1   1   0.0      3.7718870400000002      2.1776999999999993                       0
    14   1   2   0.0      5.0291827199999997      2.9035999999999991                       0
    15   1   1   0.0              6.28647841      2.1776999999999993                       0
    16   1   2   0.0      7.5437740900000003      2.9035999999999991                       0
    17   1   1   0.0      8.8010697699999998      2.1776999999999993                       0
    18   1   2   0.0             10.05836545      2.9035999999999982                       0
    19   1   1   0.0      11.315661130000001      2.1776999999999984                       0
    20   1   2   0.0      12.572956810000001      2.9035999999999982                       0
    21   1   1   0.0      2.5145913599999998      4.3554000000000004                       0
    22   1   2   0.0      3.7718870400000002      5.0812999999999997                       0
    23   1   1   0.0      5.0291827199999997      4.3554000000000004                       0
    24   1   2   0.0               6.2864784      5.0812999999999979                       0
    25   1   1   0.0      7.5437740900000003      4.3553999999999986                       0
    26   1   2   0.0      8.8010697699999998      5.0812999999999979                       0
    27   1   1   0.0             10.05836545      4.3553999999999986                       0
    28   1   2   0.0      11.315661130000001      5.0812999999999979                       0
    29   1   1   0.0      12.572956810000001      4.3553999999999986                       0
    30   1   2   0.0      13.830252489999999      5.0812999999999979                       0
    31   1   1   0.0      3.7718870400000002      6.5331000000000001                       0
    32   1   2   0.0      5.0291827199999997      7.2590000000000003                       0
    33   1   1   0.0              6.28647841      6.5330999999999984                       0
    34   1   2   0.0      7.5437740800000004      7.2589999999999986                       0
    35   1   1   0.0      8.8010697699999998      6.5330999999999984                       0
    36   1   2   0.0             10.05836545      7.2589999999999986                       0
    37   1   1   0.0      11.315661130000001      6.5330999999999984                       0
    38   1   2   0.0      12.572956810000001      7.2589999999999986                       0
    39   1   1   0.0      13.830252489999999      6.5330999999999984                       0
    40   1   2   0.0             15.08754817      7.2589999999999986                       0

Bonds

  1   1   1   2
  2   1   1  10
  3   1   1  32
  4   1   2   3
  5   1   2  11
  6   1   3   4
  7   1   3  34
  8   1   4   5
  9   1   4  13
 10   1   5   6
 11   1   5  36
 12   1   6   7
 13   1   6  15
 14   1   7   8
 15   1   7  38
 16   1   8   9
 17   1   8  17
 18   1   9  10
 19   1   9  40
 20   1  10  19
 21   1  11  12
 22   1  11  20
 23   1  12  13
 24   1  12  21
 25   1  13  14
 26   1  14  15
 27   1  14  23
 28   1  15  16
 29   1  16  17
 30   1  16  25
 31   1  17  18
 32   1  18  19
 33   1  18  27
 34   1  19  20
 35   1  20  29
 36   1  21  22
 37   1  21  30
 38   1  22  23
 39   1  22  31
 40   1  23  24
 41   1  24  25
 42   1  24  33
 43   1  25  26
 44   1  26  27
 45   1  26  35
 46   1  27  28
 47   1  28  29
 48   1  28  37
 49   1  29  30
 50   1  30  39
 51   1  31  32
 52   1  31  40
 53   1  32  33
 54   1  33  34
 55   1  34  35
 56   1  35  36
 57   1  36  37
 58   1  37  38
 59   1  38  39
 60   1  39  40

Angles

  1   2   2   1  10
  2   2   2   1  32
  3   2  10   1  32
  4   1   1   2   3
  5   1   1   2  11
  6   1   3   2  11
  7   2   2   3   4
  8   2   2   3  34
  9   2   4   3  34
 10   1   3   4   5
 11   1   3   4  13
 12   1   5   4  13
 13   2   4   5   6
 14   2   4   5  36
 15   2   6   5  36
 16   1   5   6   7
 17   1   5   6  15
 18   1   7   6  15
 19   2   6   7   8
 20   2   6   7  38
 21   2   8   7  38
 22   1   7   8   9
 23   1   7   8  17
 24   1   9   8  17
 25   2   8   9  10
 26   2   8   9  40
 27   2  10   9  40
 28   1   1  10   9
 29   1   1  10  19
 30   1   9  10  19
 31   2   2  11  12
 32   2   2  11  20
 33   2  12  11  20
 34   1  11  12  13
 35   1  11  12  21
 36   1  13  12  21
 37   2   4  13  12
 38   2   4  13  14
 39   2  12  13  14
 40   1  13  14  15
 41   1  13  14  23
 42   1  15  14  23
 43   2   6  15  14
 44   2   6  15  16
 45   2  14  15  16
 46   1  15  16  17
 47   1  15  16  25
 48   1  17  16  25
 49   2   8  17  16
 50   2   8  17  18
 51   2  16  17  18
 52   1  17  18  19
 53   1  17  18  27
 54   1  19  18  27
 55   2  10  19  18
 56   2  10  19  20
 57   2  18  19  20
 58   1  11  20  19
 59   1  11  20  29
 60   1  19  20  29
 61   2  12  21  22
 62   2  12  21  30
 63   2  22  21  30
 64   1  21  22  23
 65   1  21  22  31
 66   1  23  22  31
 67   2  14  23  22
 68   2  14  23  24
 69   2  22  23  24
 70   1  23  24  25
 71   1  23  24  33
 72   1  25  24  33
 73   2  16  25  24
 74   2  16  25  26
 75   2  24  25  26
 76   1  25  26  27
 77   1  25  26  35
 78   1  27  26  35
 79   2  18  27  26
 80   2  18  27  28
 81   2  26  27  28
 82   1  27  28  29
 83   1  27  28  37
 84   1  29  28  37
 85   2  20  29  28
 86   2  20  29  30
 87   2  28  29  30
 88   1  21  30  29
 89   1  21  30  39
 90   1  29  30  39
 91   2  22  31  32
 92   2  22  31  40
 93   2  32  31  40
 94   1   1  32  31
 95   1   1  32  33
 96   1  31  32  33
 97   2  24  33  32
 98   2  24  33  34
 99   2  32  33  34
100   1   3  34  33
101   1   3  34  35
102   1  33  34  35
103   2  26  35  34
104   2  26  35  36
105   2  34  35  36
106   1   5  36  35
107   1   5  36  37
108   1  35  36  37
109   2  28  37  36
110   2  28  37  38
111   2  36  37  38
112   1   7  38  37
113   1   7  38  39
114   1  37  38  39
115   2  30  39  38
116   2  30  39  40
117   2  38  39  40
118   1   9  40  31
119   1   9  40  39
120   1  31  40  39
