192
Lattice="10.861899556810426 0.0 0.0 0.0 16.292849335215642 0.0 0.0 -0.00021723799113620854 21.723799113620853" Properties=species:S:1:pos:R:3:masses:R:1:momenta:R:3:id:I:1:type:I:1 comment="LAMMPS data file via write_data, version 2 Aug 2023, timestep = 4, units = metal" pbc="T T T"
X       -0.00094978      -0.00142465      -0.00189956       0.00000000       0.00000000       0.00000000       0.00000000        1        1
X       -0.00094978       2.71402309       2.71357533       0.00000000       0.00000000       0.00000000       0.00000000        2        1
X        2.71452511      -0.00145180       2.71357533       0.00000000       0.00000000       0.00000000       0.00000000        3        1
X        2.71452511       2.71405024      -0.00189956       0.00000000       0.00000000       0.00000000       0.00000000        4        1
X        1.35678767       1.35629922       1.35583789       0.00000000       0.00000000       0.00000000       0.00000000        5        1
X        1.35678767       4.07174695       4.07131278       0.00000000       0.00000000       0.00000000       0.00000000        6        1
X        4.07226256       1.35627206       4.07131278       0.00000000       0.00000000       0.00000000       0.00000000        7        1
X        4.07226256       4.07177411       1.35583789       0.00000000       0.00000000       0.00000000       0.00000000        8        1
X        5.43000000      -0.00142465      -0.00189956       0.00000000       0.00000000       0.00000000       0.00000000        9        1
X        5.43000000       2.71402309       2.71357533       0.00000000       0.00000000       0.00000000       0.00000000       10        1
X        8.14547489      -0.00145180       2.71357533       0.00000000       0.00000000       0.00000000       0.00000000       11        1
X        8.14547489       2.71405024      -0.00189956       0.00000000       0.00000000       0.00000000       0.00000000       12        1
X        6.78773744       1.35629922       1.35583789       0.00000000       0.00000000       0.00000000       0.00000000       13        1
X        6.78773744       4.07174695       4.07131278       0.00000000       0.00000000       0.00000000       0.00000000       14        1
X        9.50321233       1.35627206       4.07131278       0.00000000       0.00000000       0.00000000       0.00000000       15        1
X        9.50321233       4.07177411       1.35583789       0.00000000       0.00000000       0.00000000       0.00000000       16        1
X       -0.00094978       5.42952513      -0.00189956       0.00000000       0.00000000       0.00000000       0.00000000       17        1
X       -0.00094978       8.14497286       2.71357533       0.00000000       0.00000000       0.00000000       0.00000000       18        1
X        2.71452511       5.42949798       2.71357533       0.00000000       0.00000000       0.00000000       0.00000000       19        1
X        2.71452511       8.14500002      -0.00189956       0.00000000       0.00000000       0.00000000       0.00000000       20        1
X        1.35678767       6.78724900       1.35583789       0.00000000       0.00000000       0.00000000       0.00000000       21        1
X        1.35678767       9.50269673       4.07131278       0.00000000       0.00000000       0.00000000       0.00000000       22        1
X        4.07226256       6.78722184       4.07131278       0.00000000       0.00000000       0.00000000       0.00000000       23        1
X        4.07226256       9.50272389       1.35583789       0.00000000       0.00000000       0.00000000       0.00000000       24        1
X        5.43000000       5.42952513      -0.00189956       0.00000000       0.00000000       0.00000000       0.00000000       25        1
X        5.43000000       8.14497286       2.71357533       0.00000000       0.00000000       0.00000000       0.00000000       26        1
X        8.14547489       5.42949798       2.71357533       0.00000000       0.00000000       0.00000000       0.00000000       27        1
X        8.14547489       8.14500002      -0.00189956       0.00000000       0.00000000       0.00000000       0.00000000       28        1
X        6.78773744       6.78724900       1.35583789       0.00000000       0.00000000       0.00000000       0.00000000       29        1
X        6.78773744       9.50269673       4.07131278       0.00000000       0.00000000       0.00000000       0.00000000       30        1
X        9.50321233       6.78722184       4.07131278       0.00000000       0.00000000       0.00000000       0.00000000       31        1
X        9.50321233       9.50272389       1.35583789       0.00000000       0.00000000       0.00000000       0.00000000       32        1
X       -0.00094978      10.86047491      -0.00189956       0.00000000       0.00000000       0.00000000       0.00000000       33        1
X       -0.00094978      13.57592264       2.71357533       0.00000000       0.00000000       0.00000000       0.00000000       34        1
X        2.71452511      10.86044775       2.71357533       0.00000000       0.00000000       0.00000000       0.00000000       35        1
X        2.71452511      13.57594980      -0.00189956       0.00000000       0.00000000       0.00000000       0.00000000       36        1
X        1.35678767      12.21819878       1.35583789       0.00000000       0.00000000       0.00000000       0.00000000       37        1
X        1.35678767      14.93364651       4.07131278       0.00000000       0.00000000       0.00000000       0.00000000       38        1
X        4.07226256      12.21817162       4.07131278       0.00000000       0.00000000       0.00000000       0.00000000       39        1
X        4.07226256      14.93367366       1.35583789       0.00000000       0.00000000       0.00000000       0.00000000       40        1
X        5.43000000      10.86047491      -0.00189956       0.00000000       0.00000000       0.00000000       0.00000000       41        1
X        5.43000000      13.57592264       2.71357533       0.00000000       0.00000000       0.00000000       0.00000000       42        1
X        8.14547489      10.86044775       2.71357533       0.00000000       0.00000000       0.00000000       0.00000000       43        1
X        8.14547489      13.57594980      -0.00189956       0.00000000       0.00000000       0.00000000       0.00000000       44        1
X        6.78773744      12.21819878       1.35583789       0.00000000       0.00000000       0.00000000       0.00000000       45        1
X        6.78773744      14.93364651       4.07131278       0.00000000       0.00000000       0.00000000       0.00000000       46        1
X        9.50321233      12.21817162       4.07131278       0.00000000       0.00000000       0.00000000       0.00000000       47        1
X        9.50321233      14.93367366       1.35583789       0.00000000       0.00000000       0.00000000       0.00000000       48        1
X       -0.00094978      -0.00147896       5.42905022       0.00000000       0.00000000       0.00000000       0.00000000       49        1
X       -0.00094978       2.71396878       8.14452511       0.00000000       0.00000000       0.00000000       0.00000000       50        1
X        2.71452511      -0.00150611       8.14452511       0.00000000       0.00000000       0.00000000       0.00000000       51        1
X        2.71452511       2.71399593       5.42905022       0.00000000       0.00000000       0.00000000       0.00000000       52        1
X        1.35678767       1.35624491       6.78678767       0.00000000       0.00000000       0.00000000       0.00000000       53        1
X        1.35678767       4.07169264       9.50226256       0.00000000       0.00000000       0.00000000       0.00000000       54        1
X        4.07226256       1.35621775       9.50226256       0.00000000       0.00000000       0.00000000       0.00000000       55        1
X        4.07226256       4.07171980       6.78678767       0.00000000       0.00000000       0.00000000       0.00000000       56        1
X        5.43000000      -0.00147896       5.42905022       0.00000000       0.00000000       0.00000000       0.00000000       57        1
X        5.43000000       2.71396878       8.14452511       0.00000000       0.00000000       0.00000000       0.00000000       58        1
X        8.14547489      -0.00150611       8.14452511       0.00000000       0.00000000       0.00000000       0.00000000       59        1
X        8.14547489       2.71399593       5.42905022       0.00000000       0.00000000       0.00000000       0.00000000       60        1
X        6.78773744       1.35624491       6.78678767       0.00000000       0.00000000       0.00000000       0.00000000       61        1
X        6.78773744       4.07169264       9.50226256       0.00000000       0.00000000       0.00000000       0.00000000       62        1
X        9.50321233       1.35621775       9.50226256       0.00000000       0.00000000       0.00000000       0.00000000       63        1
X        9.50321233       4.07171980       6.78678767       0.00000000       0.00000000       0.00000000       0.00000000       64        1
X       -0.00094978       5.42947082       5.42905022       0.00000000       0.00000000       0.00000000       0.00000000       65        1
X       -0.00094978       8.14491855       8.14452511       0.00000000       0.00000000       0.00000000       0.00000000       66        1
X        2.71452511       5.42944367       8.14452511       0.00000000       0.00000000       0.00000000       0.00000000       67        1
X        2.71452511       8.14494571       5.42905022       0.00000000       0.00000000       0.00000000       0.00000000       68        1
X        1.35678767       6.78719469       6.78678767       0.00000000       0.00000000       0.00000000       0.00000000       69        1
X        1.35678767       9.50264242       9.50226256       0.00000000       0.00000000       0.00000000       0.00000000       70        1
X        4.07226256       6.78716753       9.50226256       0.00000000       0.00000000       0.00000000       0.00000000       71        1
X        4.07226256       9.50266958       6.78678767       0.00000000       0.00000000       0.00000000       0.00000000       72        1
X        5.43000000       5.42947082       5.42905022       0.00000000       0.00000000       0.00000000       0.00000000       73        1
X        5.43000000       8.14491855       8.14452511       0.00000000       0.00000000       0.00000000       0.00000000       74        1
X        8.14547489       5.42944367       8.14452511       0.00000000       0.00000000       0.00000000       0.00000000       75        1
X        8.14547489       8.14494571       5.42905022       0.00000000       0.00000000       0.00000000       0.00000000       76        1
X        6.78773744       6.78719469       6.78678767       0.00000000       0.00000000       0.00000000       0.00000000       77        1
X        6.78773744       9.50264242       9.50226256       0.00000000       0.00000000       0.00000000       0.00000000       78        1
X        9.50321233       6.78716753       9.50226256       0.00000000       0.00000000       0.00000000       0.00000000       79        1
X        9.50321233       9.50266958       6.78678767       0.00000000       0.00000000       0.00000000       0.00000000       80        1
X       -0.00094978      10.86042060       5.42905022       0.00000000       0.00000000       0.00000000       0.00000000       81        1
X       -0.00094978      13.57586833       8.14452511       0.00000000       0.00000000       0.00000000       0.00000000       82        1
X        2.71452511      10.86039344       8.14452511       0.00000000       0.00000000       0.00000000       0.00000000       83        1
X        2.71452511      13.57589549       5.42905022       0.00000000       0.00000000       0.00000000       0.00000000       84        1
X        1.35678767      12.21814447       6.78678767       0.00000000       0.00000000       0.00000000       0.00000000       85        1
X        1.35678767      14.93359220       9.50226256       0.00000000       0.00000000       0.00000000       0.00000000       86        1
X        4.07226256      12.21811731       9.50226256       0.00000000       0.00000000       0.00000000       0.00000000       87        1
X        4.07226256      14.93361936       6.78678767       0.00000000       0.00000000       0.00000000       0.00000000       88        1
X        5.43000000      10.86042060       5.42905022       0.00000000       0.00000000       0.00000000       0.00000000       89        1
X        5.43000000      13.57586833       8.14452511       0.00000000       0.00000000       0.00000000       0.00000000       90        1
X        8.14547489      10.86039344       8.14452511       0.00000000       0.00000000       0.00000000       0.00000000       91        1
X        8.14547489      13.57589549       5.42905022       0.00000000       0.00000000       0.00000000       0.00000000       92        1
X        6.78773744      12.21814447       6.78678767       0.00000000       0.00000000       0.00000000       0.00000000       93        1
X        6.78773744      14.93359220       9.50226256       0.00000000       0.00000000       0.00000000       0.00000000       94        1
X        9.50321233      12.21811731       9.50226256       0.00000000       0.00000000       0.00000000       0.00000000       95        1
X        9.50321233      14.93361936       6.78678767       0.00000000       0.00000000       0.00000000       0.00000000       96        1
X       -0.00094978      -0.00153327      10.86000000       0.00000000       0.00000000       0.00000000       0.00000000       97        1
X       -0.00094978       2.71391447      13.57547489       0.00000000       0.00000000       0.00000000       0.00000000       98        1
X        2.71452511      -0.00156042      13.57547489       0.00000000       0.00000000       0.00000000       0.00000000       99        1
X        2.71452511       2.71394162      10.86000000       0.00000000       0.00000000       0.00000000       0.00000000      100        1
X        1.35678767       1.35619060      12.21773744       0.00000000       0.00000000       0.00000000       0.00000000      101        1
X        1.35678767       4.07163833      14.93321233       0.00000000       0.00000000       0.00000000       0.00000000      102        1
X        4.07226256       1.35616344      14.93321233       0.00000000       0.00000000       0.00000000       0.00000000      103        1
X        4.07226256       4.07166549      12.21773744       0.00000000       0.00000000       0.00000000       0.00000000      104        1
X        5.43000000      -0.00153327      10.86000000       0.00000000       0.00000000       0.00000000       0.00000000      105        1
X        5.43000000       2.71391447      13.57547489       0.00000000       0.00000000       0.00000000       0.00000000      106        1
X        8.14547489      -0.00156042      13.57547489       0.00000000       0.00000000       0.00000000       0.00000000      107        1
X        8.14547489       2.71394162      10.86000000       0.00000000       0.00000000       0.00000000       0.00000000      108        1
X        6.78773744       1.35619060      12.21773744       0.00000000       0.00000000       0.00000000       0.00000000      109        1
X        6.78773744       4.07163833      14.93321233       0.00000000       0.00000000       0.00000000       0.00000000      110        1
X        9.50321233       1.35616344      14.93321233       0.00000000       0.00000000       0.00000000       0.00000000      111        1
X        9.50321233       4.07166549      12.21773744       0.00000000       0.00000000       0.00000000       0.00000000      112        1
X       -0.00094978       5.42941651      10.86000000       0.00000000       0.00000000       0.00000000       0.00000000      113        1
X       -0.00094978       8.14486425      13.57547489       0.00000000       0.00000000       0.00000000       0.00000000      114        1
X        2.71452511       5.42938936      13.57547489       0.00000000       0.00000000       0.00000000       0.00000000      115        1
X        2.71452511       8.14489140      10.86000000       0.00000000       0.00000000       0.00000000       0.00000000      116        1
X        1.35678767       6.78714038      12.21773744       0.00000000       0.00000000       0.00000000       0.00000000      117        1
X        1.35678767       9.50258811      14.93321233       0.00000000       0.00000000       0.00000000       0.00000000      118        1
X        4.07226256       6.78711322      14.93321233       0.00000000       0.00000000       0.00000000       0.00000000      119        1
X        4.07226256       9.50261527      12.21773744       0.00000000       0.00000000       0.00000000       0.00000000      120        1
X        5.43000000       5.42941651      10.86000000       0.00000000       0.00000000       0.00000000       0.00000000      121        1
X        5.43000000       8.14486425      13.57547489       0.00000000       0.00000000       0.00000000       0.00000000      122        1
X        8.14547489       5.42938936      13.57547489       0.00000000       0.00000000       0.00000000       0.00000000      123        1
X        8.14547489       8.14489140      10.86000000       0.00000000       0.00000000       0.00000000       0.00000000      124        1
X        6.78773744       6.78714038      12.21773744       0.00000000       0.00000000       0.00000000       0.00000000      125        1
X        6.78773744       9.50258811      14.93321233       0.00000000       0.00000000       0.00000000       0.00000000      126        1
X        9.50321233       6.78711322      14.93321233       0.00000000       0.00000000       0.00000000       0.00000000      127        1
X        9.50321233       9.50261527      12.21773744       0.00000000       0.00000000       0.00000000       0.00000000      128        1
X       -0.00094978      10.86036629      10.86000000       0.00000000       0.00000000       0.00000000       0.00000000      129        1
X       -0.00094978      13.57581402      13.57547489       0.00000000       0.00000000       0.00000000       0.00000000      130        1
X        2.71452511      10.86033913      13.57547489       0.00000000       0.00000000       0.00000000       0.00000000      131        1
X        2.71452511      13.57584118      10.86000000       0.00000000       0.00000000       0.00000000       0.00000000      132        1
X        1.35678767      12.21809016      12.21773744       0.00000000       0.00000000       0.00000000       0.00000000      133        1
X        1.35678767      14.93353789      14.93321233       0.00000000       0.00000000       0.00000000       0.00000000      134        1
X        4.07226256      12.21806300      14.93321233       0.00000000       0.00000000       0.00000000       0.00000000      135        1
X        4.07226256      14.93356505      12.21773744       0.00000000       0.00000000       0.00000000       0.00000000      136        1
X        5.43000000      10.86036629      10.86000000       0.00000000       0.00000000       0.00000000       0.00000000      137        1
X        5.43000000      13.57581402      13.57547489       0.00000000       0.00000000       0.00000000       0.00000000      138        1
X        8.14547489      10.86033913      13.57547489       0.00000000       0.00000000       0.00000000       0.00000000      139        1
X        8.14547489      13.57584118      10.86000000       0.00000000       0.00000000       0.00000000       0.00000000      140        1
X        6.78773744      12.21809016      12.21773744       0.00000000       0.00000000       0.00000000       0.00000000      141        1
X        6.78773744      14.93353789      14.93321233       0.00000000       0.00000000       0.00000000       0.00000000      142        1
X        9.50321233      12.21806300      14.93321233       0.00000000       0.00000000       0.00000000       0.00000000      143        1
X        9.50321233      14.93356505      12.21773744       0.00000000       0.00000000       0.00000000       0.00000000      144        1
X       -0.00094978      -0.00158758      16.29094978       0.00000000       0.00000000       0.00000000       0.00000000      145        1
X       -0.00094978       2.71386016      19.00642467       0.00000000       0.00000000       0.00000000       0.00000000      146        1
X        2.71452511      -0.00161473      19.00642467       0.00000000       0.00000000       0.00000000       0.00000000      147        1
X        2.71452511       2.71388731      16.29094978       0.00000000       0.00000000       0.00000000       0.00000000      148        1
X        1.35678767       1.35613629      17.64868722       0.00000000       0.00000000       0.00000000       0.00000000      149        1
X        1.35678767       4.07158402      20.36416211       0.00000000       0.00000000       0.00000000       0.00000000      150        1
X        4.07226256       1.35610914      20.36416211       0.00000000       0.00000000       0.00000000       0.00000000      151        1
X        4.07226256       4.07161118      17.64868722       0.00000000       0.00000000       0.00000000       0.00000000      152        1
X        5.43000000      -0.00158758      16.29094978       0.00000000       0.00000000       0.00000000       0.00000000      153        1
X        5.43000000       2.71386016      19.00642467       0.00000000       0.00000000       0.00000000       0.00000000      154        1
X        8.14547489      -0.00161473      19.00642467       0.00000000       0.00000000       0.00000000       0.00000000      155        1
X        8.14547489       2.71388731      16.29094978       0.00000000       0.00000000       0.00000000       0.00000000      156        1
X        6.78773744       1.35613629      17.64868722       0.00000000       0.00000000       0.00000000       0.00000000      157        1
X        6.78773744       4.07158402      20.36416211       0.00000000       0.00000000       0.00000000       0.00000000      158        1
X        9.50321233       1.35610914      20.36416211       0.00000000       0.00000000       0.00000000       0.00000000      159        1
X        9.50321233       4.07161118      17.64868722       0.00000000       0.00000000       0.00000000       0.00000000      160        1
X       -0.00094978       5.42936220      16.29094978       0.00000000       0.00000000       0.00000000       0.00000000      161        1
X       -0.00094978       8.14480994      19.00642467       0.00000000       0.00000000       0.00000000       0.00000000      162        1
X        2.71452511       5.42933505      19.00642467       0.00000000       0.00000000       0.00000000       0.00000000      163        1
X        2.71452511       8.14483709      16.29094978       0.00000000       0.00000000       0.00000000       0.00000000      164        1
X        1.35678767       6.78708607      17.64868722       0.00000000       0.00000000       0.00000000       0.00000000      165        1
X        1.35678767       9.50253380      20.36416211       0.00000000       0.00000000       0.00000000       0.00000000      166        1
X        4.07226256       6.78705891      20.36416211       0.00000000       0.00000000       0.00000000       0.00000000      167        1
X        4.07226256       9.50256096      17.64868722       0.00000000       0.00000000       0.00000000       0.00000000      168        1
X        5.43000000       5.42936220      16.29094978       0.00000000       0.00000000       0.00000000       0.00000000      169        1
X        5.43000000       8.14480994      19.00642467       0.00000000       0.00000000       0.00000000       0.00000000      170        1
X        8.14547489       5.42933505      19.00642467       0.00000000       0.00000000       0.00000000       0.00000000      171        1
X        8.14547489       8.14483709      16.29094978       0.00000000       0.00000000       0.00000000       0.00000000      172        1
X        6.78773744       6.78708607      17.64868722       0.00000000       0.00000000       0.00000000       0.00000000      173        1
X        6.78773744       9.50253380      20.36416211       0.00000000       0.00000000       0.00000000       0.00000000      174        1
X        9.50321233       6.78705891      20.36416211       0.00000000       0.00000000       0.00000000       0.00000000      175        1
X        9.50321233       9.50256096      17.64868722       0.00000000       0.00000000       0.00000000       0.00000000      176        1
X       -0.00094978      10.86031198      16.29094978       0.00000000       0.00000000       0.00000000       0.00000000      177        1
X       -0.00094978      13.57575971      19.00642467       0.00000000       0.00000000       0.00000000       0.00000000      178        1
X        2.71452511      10.86028482      19.00642467       0.00000000       0.00000000       0.00000000       0.00000000      179        1
X        2.71452511      13.57578687      16.29094978       0.00000000       0.00000000       0.00000000       0.00000000      180        1
X        1.35678767      12.21803585      17.64868722       0.00000000       0.00000000       0.00000000       0.00000000      181        1
X        1.35678767      14.93348358      20.36416211       0.00000000       0.00000000       0.00000000       0.00000000      182        1
X        4.07226256      12.21800869      20.36416211       0.00000000       0.00000000       0.00000000       0.00000000      183        1
X        4.07226256      14.93351074      17.64868722       0.00000000       0.00000000       0.00000000       0.00000000      184        1
X        5.43000000      10.86031198      16.29094978       0.00000000       0.00000000       0.00000000       0.00000000      185        1
X        5.43000000      13.57575971      19.00642467       0.00000000       0.00000000       0.00000000       0.00000000      186        1
X        8.14547489      10.86028482      19.00642467       0.00000000       0.00000000       0.00000000       0.00000000      187        1
X        8.14547489      13.57578687      16.29094978       0.00000000       0.00000000       0.00000000       0.00000000      188        1
X        6.78773744      12.21803585      17.64868722       0.00000000       0.00000000       0.00000000       0.00000000      189        1
X        6.78773744      14.93348358      20.36416211       0.00000000       0.00000000       0.00000000       0.00000000      190        1
X        9.50321233      12.21800869      20.36416211       0.00000000       0.00000000       0.00000000       0.00000000      191        1
X        9.50321233      14.93351074      17.64868722       0.00000000       0.00000000       0.00000000       0.00000000      192        1
