ITEM: TIMESTEP
0
ITEM: NUMBER OF ATOMS
27      
ITEM: BOX BOUNDS xy xz yz
0.000000000      4.500000000      1.500000000     
0.000000000      2.598076212      0.000000000     
-20.000000000    20.000000000     0.000000000     
ITEM: ATOMS id mol type xu yu zu
1 1 1 0.000000 0.000000 0.500000
2 1 2 0.500000 0.288675 1.000000
3 1 3 0.500000 0.288675 0.000000
4 1 1 1.000000 0.000000 0.500000
5 1 2 1.500000 0.288675 1.000000
6 1 3 1.500000 0.288675 0.000000
7 1 1 2.000000 0.000000 0.500000
8 1 2 2.500000 0.288675 1.000000
9 1 3 2.500000 0.288675 0.000000
10 1 1 0.500000 0.866025 0.500000
11 1 2 1.000000 1.154701 1.000000
12 1 3 1.000000 1.154701 0.000000
13 1 1 1.500000 0.866025 0.500000
14 1 2 2.000000 1.154701 1.000000
15 1 3 2.000000 1.154701 0.000000
16 1 1 2.500000 0.866025 0.500000
17 1 2 3.000000 1.154701 1.000000
18 1 3 3.000000 1.154701 0.000000
19 1 1 1.000000 1.732051 0.500000
20 1 2 1.500000 2.020726 1.000000
21 1 3 1.500000 2.020726 0.000000
22 1 1 2.000000 1.732051 0.500000
23 1 2 2.500000 2.020726 1.000000
24 1 3 2.500000 2.020726 0.000000
25 1 1 3.000000 1.732051 0.500000
26 1 2 3.500000 2.020726 1.000000
27 1 3 3.500000 2.020726 0.000000
