192
Lattice="10.861899556810426 0.0 0.0 0.0 16.292849335215642 0.0 0.0 0.00021723799113620854 21.723799113620853" Properties=species:S:1:pos:R:3:masses:R:1:momenta:R:3:id:I:1:type:I:1 comment="LAMMPS data file via write_data, version 2 Aug 2023, timestep = 4, units = metal" pbc="T T T"
X       -0.00094978      -0.00142469      -0.00189956       0.00000000       0.00000000       0.00000000       0.00000000        1        1
X       -0.00094978       2.71407736       2.71357533       0.00000000       0.00000000       0.00000000       0.00000000        2        1
X        2.71452511      -0.00139753       2.71357533       0.00000000       0.00000000       0.00000000       0.00000000        3        1
X        2.71452511       2.71405020      -0.00189956       0.00000000       0.00000000       0.00000000       0.00000000        4        1
X        1.35678767       1.35632634       1.35583789       0.00000000       0.00000000       0.00000000       0.00000000        5        1
X        1.35678767       4.07182838       4.07131278       0.00000000       0.00000000       0.00000000       0.00000000        6        1
X        4.07226256       1.35635349       4.07131278       0.00000000       0.00000000       0.00000000       0.00000000        7        1
X        4.07226256       4.07180122       1.35583789       0.00000000       0.00000000       0.00000000       0.00000000        8        1
X        5.43000000      -0.00142469      -0.00189956       0.00000000       0.00000000       0.00000000       0.00000000        9        1
X        5.43000000       2.71407736       2.71357533       0.00000000       0.00000000       0.00000000       0.00000000       10        1
X        8.14547489      -0.00139753       2.71357533       0.00000000       0.00000000       0.00000000       0.00000000       11        1
X        8.14547489       2.71405020      -0.00189956       0.00000000       0.00000000       0.00000000       0.00000000       12        1
X        6.78773744       1.35632634       1.35583789       0.00000000       0.00000000       0.00000000       0.00000000       13        1
X        6.78773744       4.07182838       4.07131278       0.00000000       0.00000000       0.00000000       0.00000000       14        1
X        9.50321233       1.35635349       4.07131278       0.00000000       0.00000000       0.00000000       0.00000000       15        1
X        9.50321233       4.07180122       1.35583789       0.00000000       0.00000000       0.00000000       0.00000000       16        1
X       -0.00094978       5.42952509      -0.00189956       0.00000000       0.00000000       0.00000000       0.00000000       17        1
X       -0.00094978       8.14502714       2.71357533       0.00000000       0.00000000       0.00000000       0.00000000       18        1
X        2.71452511       5.42955225       2.71357533       0.00000000       0.00000000       0.00000000       0.00000000       19        1
X        2.71452511       8.14499998      -0.00189956       0.00000000       0.00000000       0.00000000       0.00000000       20        1
X        1.35678767       6.78727611       1.35583789       0.00000000       0.00000000       0.00000000       0.00000000       21        1
X        1.35678767       9.50277816       4.07131278       0.00000000       0.00000000       0.00000000       0.00000000       22        1
X        4.07226256       6.78730327       4.07131278       0.00000000       0.00000000       0.00000000       0.00000000       23        1
X        4.07226256       9.50275100       1.35583789       0.00000000       0.00000000       0.00000000       0.00000000       24        1
X        5.43000000       5.42952509      -0.00189956       0.00000000       0.00000000       0.00000000       0.00000000       25        1
X        5.43000000       8.14502714       2.71357533       0.00000000       0.00000000       0.00000000       0.00000000       26        1
X        8.14547489       5.42955225       2.71357533       0.00000000       0.00000000       0.00000000       0.00000000       27        1
X        8.14547489       8.14499998      -0.00189956       0.00000000       0.00000000       0.00000000       0.00000000       28        1
X        6.78773744       6.78727611       1.35583789       0.00000000       0.00000000       0.00000000       0.00000000       29        1
X        6.78773744       9.50277816       4.07131278       0.00000000       0.00000000       0.00000000       0.00000000       30        1
X        9.50321233       6.78730327       4.07131278       0.00000000       0.00000000       0.00000000       0.00000000       31        1
X        9.50321233       9.50275100       1.35583789       0.00000000       0.00000000       0.00000000       0.00000000       32        1
X       -0.00094978      10.86047487      -0.00189956       0.00000000       0.00000000       0.00000000       0.00000000       33        1
X       -0.00094978      13.57597691       2.71357533       0.00000000       0.00000000       0.00000000       0.00000000       34        1
X        2.71452511      10.86050202       2.71357533       0.00000000       0.00000000       0.00000000       0.00000000       35        1
X        2.71452511      13.57594976      -0.00189956       0.00000000       0.00000000       0.00000000       0.00000000       36        1
X        1.35678767      12.21822589       1.35583789       0.00000000       0.00000000       0.00000000       0.00000000       37        1
X        1.35678767      14.93372794       4.07131278       0.00000000       0.00000000       0.00000000       0.00000000       38        1
X        4.07226256      12.21825305       4.07131278       0.00000000       0.00000000       0.00000000       0.00000000       39        1
X        4.07226256      14.93370078       1.35583789       0.00000000       0.00000000       0.00000000       0.00000000       40        1
X        5.43000000      10.86047487      -0.00189956       0.00000000       0.00000000       0.00000000       0.00000000       41        1
X        5.43000000      13.57597691       2.71357533       0.00000000       0.00000000       0.00000000       0.00000000       42        1
X        8.14547489      10.86050202       2.71357533       0.00000000       0.00000000       0.00000000       0.00000000       43        1
X        8.14547489      13.57594976      -0.00189956       0.00000000       0.00000000       0.00000000       0.00000000       44        1
X        6.78773744      12.21822589       1.35583789       0.00000000       0.00000000       0.00000000       0.00000000       45        1
X        6.78773744      14.93372794       4.07131278       0.00000000       0.00000000       0.00000000       0.00000000       46        1
X        9.50321233      12.21825305       4.07131278       0.00000000       0.00000000       0.00000000       0.00000000       47        1
X        9.50321233      14.93370078       1.35583789       0.00000000       0.00000000       0.00000000       0.00000000       48        1
X       -0.00094978      -0.00137038       5.42905022       0.00000000       0.00000000       0.00000000       0.00000000       49        1
X       -0.00094978       2.71413167       8.14452511       0.00000000       0.00000000       0.00000000       0.00000000       50        1
X        2.71452511      -0.00134322       8.14452511       0.00000000       0.00000000       0.00000000       0.00000000       51        1
X        2.71452511       2.71410451       5.42905022       0.00000000       0.00000000       0.00000000       0.00000000       52        1
X        1.35678767       1.35638064       6.78678767       0.00000000       0.00000000       0.00000000       0.00000000       53        1
X        1.35678767       4.07188269       9.50226256       0.00000000       0.00000000       0.00000000       0.00000000       54        1
X        4.07226256       1.35640780       9.50226256       0.00000000       0.00000000       0.00000000       0.00000000       55        1
X        4.07226256       4.07185553       6.78678767       0.00000000       0.00000000       0.00000000       0.00000000       56        1
X        5.43000000      -0.00137038       5.42905022       0.00000000       0.00000000       0.00000000       0.00000000       57        1
X        5.43000000       2.71413167       8.14452511       0.00000000       0.00000000       0.00000000       0.00000000       58        1
X        8.14547489      -0.00134322       8.14452511       0.00000000       0.00000000       0.00000000       0.00000000       59        1
X        8.14547489       2.71410451       5.42905022       0.00000000       0.00000000       0.00000000       0.00000000       60        1
X        6.78773744       1.35638064       6.78678767       0.00000000       0.00000000       0.00000000       0.00000000       61        1
X        6.78773744       4.07188269       9.50226256       0.00000000       0.00000000       0.00000000       0.00000000       62        1
X        9.50321233       1.35640780       9.50226256       0.00000000       0.00000000       0.00000000       0.00000000       63        1
X        9.50321233       4.07185553       6.78678767       0.00000000       0.00000000       0.00000000       0.00000000       64        1
X       -0.00094978       5.42957940       5.42905022       0.00000000       0.00000000       0.00000000       0.00000000       65        1
X       -0.00094978       8.14508145       8.14452511       0.00000000       0.00000000       0.00000000       0.00000000       66        1
X        2.71452511       5.42960656       8.14452511       0.00000000       0.00000000       0.00000000       0.00000000       67        1
X        2.71452511       8.14505429       5.42905022       0.00000000       0.00000000       0.00000000       0.00000000       68        1
X        1.35678767       6.78733042       6.78678767       0.00000000       0.00000000       0.00000000       0.00000000       69        1
X        1.35678767       9.50283247       9.50226256       0.00000000       0.00000000       0.00000000       0.00000000       70        1
X        4.07226256       6.78735758       9.50226256       0.00000000       0.00000000       0.00000000       0.00000000       71        1
X        4.07226256       9.50280531       6.78678767       0.00000000       0.00000000       0.00000000       0.00000000       72        1
X        5.43000000       5.42957940       5.42905022       0.00000000       0.00000000       0.00000000       0.00000000       73        1
X        5.43000000       8.14508145       8.14452511       0.00000000       0.00000000       0.00000000       0.00000000       74        1
X        8.14547489       5.42960656       8.14452511       0.00000000       0.00000000       0.00000000       0.00000000       75        1
X        8.14547489       8.14505429       5.42905022       0.00000000       0.00000000       0.00000000       0.00000000       76        1
X        6.78773744       6.78733042       6.78678767       0.00000000       0.00000000       0.00000000       0.00000000       77        1
X        6.78773744       9.50283247       9.50226256       0.00000000       0.00000000       0.00000000       0.00000000       78        1
X        9.50321233       6.78735758       9.50226256       0.00000000       0.00000000       0.00000000       0.00000000       79        1
X        9.50321233       9.50280531       6.78678767       0.00000000       0.00000000       0.00000000       0.00000000       80        1
X       -0.00094978      10.86052918       5.42905022       0.00000000       0.00000000       0.00000000       0.00000000       81        1
X       -0.00094978      13.57603122       8.14452511       0.00000000       0.00000000       0.00000000       0.00000000       82        1
X        2.71452511      10.86055633       8.14452511       0.00000000       0.00000000       0.00000000       0.00000000       83        1
X        2.71452511      13.57600407       5.42905022       0.00000000       0.00000000       0.00000000       0.00000000       84        1
X        1.35678767      12.21828020       6.78678767       0.00000000       0.00000000       0.00000000       0.00000000       85        1
X        1.35678767      14.93378225       9.50226256       0.00000000       0.00000000       0.00000000       0.00000000       86        1
X        4.07226256      12.21830736       9.50226256       0.00000000       0.00000000       0.00000000       0.00000000       87        1
X        4.07226256      14.93375509       6.78678767       0.00000000       0.00000000       0.00000000       0.00000000       88        1
X        5.43000000      10.86052918       5.42905022       0.00000000       0.00000000       0.00000000       0.00000000       89        1
X        5.43000000      13.57603122       8.14452511       0.00000000       0.00000000       0.00000000       0.00000000       90        1
X        8.14547489      10.86055633       8.14452511       0.00000000       0.00000000       0.00000000       0.00000000       91        1
X        8.14547489      13.57600407       5.42905022       0.00000000       0.00000000       0.00000000       0.00000000       92        1
X        6.78773744      12.21828020       6.78678767       0.00000000       0.00000000       0.00000000       0.00000000       93        1
X        6.78773744      14.93378225       9.50226256       0.00000000       0.00000000       0.00000000       0.00000000       94        1
X        9.50321233      12.21830736       9.50226256       0.00000000       0.00000000       0.00000000       0.00000000       95        1
X        9.50321233      14.93375509       6.78678767       0.00000000       0.00000000       0.00000000       0.00000000       96        1
X       -0.00094978      -0.00131607      10.86000000       0.00000000       0.00000000       0.00000000       0.00000000       97        1
X       -0.00094978       2.71418598      13.57547489       0.00000000       0.00000000       0.00000000       0.00000000       98        1
X        2.71452511      -0.00128891      13.57547489       0.00000000       0.00000000       0.00000000       0.00000000       99        1
X        2.71452511       2.71415882      10.86000000       0.00000000       0.00000000       0.00000000       0.00000000      100        1
X        1.35678767       1.35643495      12.21773744       0.00000000       0.00000000       0.00000000       0.00000000      101        1
X        1.35678767       4.07193700      14.93321233       0.00000000       0.00000000       0.00000000       0.00000000      102        1
X        4.07226256       1.35646211      14.93321233       0.00000000       0.00000000       0.00000000       0.00000000      103        1
X        4.07226256       4.07190984      12.21773744       0.00000000       0.00000000       0.00000000       0.00000000      104        1
X        5.43000000      -0.00131607      10.86000000       0.00000000       0.00000000       0.00000000       0.00000000      105        1
X        5.43000000       2.71418598      13.57547489       0.00000000       0.00000000       0.00000000       0.00000000      106        1
X        8.14547489      -0.00128891      13.57547489       0.00000000       0.00000000       0.00000000       0.00000000      107        1
X        8.14547489       2.71415882      10.86000000       0.00000000       0.00000000       0.00000000       0.00000000      108        1
X        6.78773744       1.35643495      12.21773744       0.00000000       0.00000000       0.00000000       0.00000000      109        1
X        6.78773744       4.07193700      14.93321233       0.00000000       0.00000000       0.00000000       0.00000000      110        1
X        9.50321233       1.35646211      14.93321233       0.00000000       0.00000000       0.00000000       0.00000000      111        1
X        9.50321233       4.07190984      12.21773744       0.00000000       0.00000000       0.00000000       0.00000000      112        1
X       -0.00094978       5.42963371      10.86000000       0.00000000       0.00000000       0.00000000       0.00000000      113        1
X       -0.00094978       8.14513575      13.57547489       0.00000000       0.00000000       0.00000000       0.00000000      114        1
X        2.71452511       5.42966087      13.57547489       0.00000000       0.00000000       0.00000000       0.00000000      115        1
X        2.71452511       8.14510860      10.86000000       0.00000000       0.00000000       0.00000000       0.00000000      116        1
X        1.35678767       6.78738473      12.21773744       0.00000000       0.00000000       0.00000000       0.00000000      117        1
X        1.35678767       9.50288678      14.93321233       0.00000000       0.00000000       0.00000000       0.00000000      118        1
X        4.07226256       6.78741189      14.93321233       0.00000000       0.00000000       0.00000000       0.00000000      119        1
X        4.07226256       9.50285962      12.21773744       0.00000000       0.00000000       0.00000000       0.00000000      120        1
X        5.43000000       5.42963371      10.86000000       0.00000000       0.00000000       0.00000000       0.00000000      121        1
X        5.43000000       8.14513575      13.57547489       0.00000000       0.00000000       0.00000000       0.00000000      122        1
X        8.14547489       5.42966087      13.57547489       0.00000000       0.00000000       0.00000000       0.00000000      123        1
X        8.14547489       8.14510860      10.86000000       0.00000000       0.00000000       0.00000000       0.00000000      124        1
X        6.78773744       6.78738473      12.21773744       0.00000000       0.00000000       0.00000000       0.00000000      125        1
X        6.78773744       9.50288678      14.93321233       0.00000000       0.00000000       0.00000000       0.00000000      126        1
X        9.50321233       6.78741189      14.93321233       0.00000000       0.00000000       0.00000000       0.00000000      127        1
X        9.50321233       9.50285962      12.21773744       0.00000000       0.00000000       0.00000000       0.00000000      128        1
X       -0.00094978      10.86058349      10.86000000       0.00000000       0.00000000       0.00000000       0.00000000      129        1
X       -0.00094978      13.57608553      13.57547489       0.00000000       0.00000000       0.00000000       0.00000000      130        1
X        2.71452511      10.86061064      13.57547489       0.00000000       0.00000000       0.00000000       0.00000000      131        1
X        2.71452511      13.57605838      10.86000000       0.00000000       0.00000000       0.00000000       0.00000000      132        1
X        1.35678767      12.21833451      12.21773744       0.00000000       0.00000000       0.00000000       0.00000000      133        1
X        1.35678767      14.93383656      14.93321233       0.00000000       0.00000000       0.00000000       0.00000000      134        1
X        4.07226256      12.21836167      14.93321233       0.00000000       0.00000000       0.00000000       0.00000000      135        1
X        4.07226256      14.93380940      12.21773744       0.00000000       0.00000000       0.00000000       0.00000000      136        1
X        5.43000000      10.86058349      10.86000000       0.00000000       0.00000000       0.00000000       0.00000000      137        1
X        5.43000000      13.57608553      13.57547489       0.00000000       0.00000000       0.00000000       0.00000000      138        1
X        8.14547489      10.86061064      13.57547489       0.00000000       0.00000000       0.00000000       0.00000000      139        1
X        8.14547489      13.57605838      10.86000000       0.00000000       0.00000000       0.00000000       0.00000000      140        1
X        6.78773744      12.21833451      12.21773744       0.00000000       0.00000000       0.00000000       0.00000000      141        1
X        6.78773744      14.93383656      14.93321233       0.00000000       0.00000000       0.00000000       0.00000000      142        1
X        9.50321233      12.21836167      14.93321233       0.00000000       0.00000000       0.00000000       0.00000000      143        1
X        9.50321233      14.93380940      12.21773744       0.00000000       0.00000000       0.00000000       0.00000000      144        1
X       -0.00094978      -0.00126176      16.29094978       0.00000000       0.00000000       0.00000000       0.00000000      145        1
X       -0.00094978       2.71424029      19.00642467       0.00000000       0.00000000       0.00000000       0.00000000      146        1
X        2.71452511      -0.00123460      19.00642467       0.00000000       0.00000000       0.00000000       0.00000000      147        1
X        2.71452511       2.71421313      16.29094978       0.00000000       0.00000000       0.00000000       0.00000000      148        1
X        1.35678767       1.35648926      17.64868722       0.00000000       0.00000000       0.00000000       0.00000000      149        1
X        1.35678767       4.07199131      20.36416211       0.00000000       0.00000000       0.00000000       0.00000000      150        1
X        4.07226256       1.35651642      20.36416211       0.00000000       0.00000000       0.00000000       0.00000000      151        1
X        4.07226256       4.07196415      17.64868722       0.00000000       0.00000000       0.00000000       0.00000000      152        1
X        5.43000000      -0.00126176      16.29094978       0.00000000       0.00000000       0.00000000       0.00000000      153        1
X        5.43000000       2.71424029      19.00642467       0.00000000       0.00000000       0.00000000       0.00000000      154        1
X        8.14547489      -0.00123460      19.00642467       0.00000000       0.00000000       0.00000000       0.00000000      155        1
X        8.14547489       2.71421313      16.29094978       0.00000000       0.00000000       0.00000000       0.00000000      156        1
X        6.78773744       1.35648926      17.64868722       0.00000000       0.00000000       0.00000000       0.00000000      157        1
X        6.78773744       4.07199131      20.36416211       0.00000000       0.00000000       0.00000000       0.00000000      158        1
X        9.50321233       1.35651642      20.36416211       0.00000000       0.00000000       0.00000000       0.00000000      159        1
X        9.50321233       4.07196415      17.64868722       0.00000000       0.00000000       0.00000000       0.00000000      160        1
X       -0.00094978       5.42968802      16.29094978       0.00000000       0.00000000       0.00000000       0.00000000      161        1
X       -0.00094978       8.14519006      19.00642467       0.00000000       0.00000000       0.00000000       0.00000000      162        1
X        2.71452511       5.42971518      19.00642467       0.00000000       0.00000000       0.00000000       0.00000000      163        1
X        2.71452511       8.14516291      16.29094978       0.00000000       0.00000000       0.00000000       0.00000000      164        1
X        1.35678767       6.78743904      17.64868722       0.00000000       0.00000000       0.00000000       0.00000000      165        1
X        1.35678767       9.50294109      20.36416211       0.00000000       0.00000000       0.00000000       0.00000000      166        1
X        4.07226256       6.78746620      20.36416211       0.00000000       0.00000000       0.00000000       0.00000000      167        1
X        4.07226256       9.50291393      17.64868722       0.00000000       0.00000000       0.00000000       0.00000000      168        1
X        5.43000000       5.42968802      16.29094978       0.00000000       0.00000000       0.00000000       0.00000000      169        1
X        5.43000000       8.14519006      19.00642467       0.00000000       0.00000000       0.00000000       0.00000000      170        1
X        8.14547489       5.42971518      19.00642467       0.00000000       0.00000000       0.00000000       0.00000000      171        1
X        8.14547489       8.14516291      16.29094978       0.00000000       0.00000000       0.00000000       0.00000000      172        1
X        6.78773744       6.78743904      17.64868722       0.00000000       0.00000000       0.00000000       0.00000000      173        1
X        6.78773744       9.50294109      20.36416211       0.00000000       0.00000000       0.00000000       0.00000000      174        1
X        9.50321233       6.78746620      20.36416211       0.00000000       0.00000000       0.00000000       0.00000000      175        1
X        9.50321233       9.50291393      17.64868722       0.00000000       0.00000000       0.00000000       0.00000000      176        1
X       -0.00094978      10.86063780      16.29094978       0.00000000       0.00000000       0.00000000       0.00000000      177        1
X       -0.00094978      13.57613984      19.00642467       0.00000000       0.00000000       0.00000000       0.00000000      178        1
X        2.71452511      10.86066495      19.00642467       0.00000000       0.00000000       0.00000000       0.00000000      179        1
X        2.71452511      13.57611269      16.29094978       0.00000000       0.00000000       0.00000000       0.00000000      180        1
X        1.35678767      12.21838882      17.64868722       0.00000000       0.00000000       0.00000000       0.00000000      181        1
X        1.35678767      14.93389086      20.36416211       0.00000000       0.00000000       0.00000000       0.00000000      182        1
X        4.07226256      12.21841598      20.36416211       0.00000000       0.00000000       0.00000000       0.00000000      183        1
X        4.07226256      14.93386371      17.64868722       0.00000000       0.00000000       0.00000000       0.00000000      184        1
X        5.43000000      10.86063780      16.29094978       0.00000000       0.00000000       0.00000000       0.00000000      185        1
X        5.43000000      13.57613984      19.00642467       0.00000000       0.00000000       0.00000000       0.00000000      186        1
X        8.14547489      10.86066495      19.00642467       0.00000000       0.00000000       0.00000000       0.00000000      187        1
X        8.14547489      13.57611269      16.29094978       0.00000000       0.00000000       0.00000000       0.00000000      188        1
X        6.78773744      12.21838882      17.64868722       0.00000000       0.00000000       0.00000000       0.00000000      189        1
X        6.78773744      14.93389086      20.36416211       0.00000000       0.00000000       0.00000000       0.00000000      190        1
X        9.50321233      12.21841598      20.36416211       0.00000000       0.00000000       0.00000000       0.00000000      191        1
X        9.50321233      14.93386371      17.64868722       0.00000000       0.00000000       0.00000000       0.00000000      192        1
