# LAMMPS data file (SimuGlue lmp-topo)

27 atoms
54 bonds
189 angles

3 atom types
2 bond types
6 angle types

0.000000000      3.000000000      xlo xhi
0.000000000      2.598076212      ylo yhi
0.000000000      40.000000000     zlo zhi
1.500000000      0.000000000      0.000000000      xy xz yz

Masses

     1      2.000000001 # H
     2      6.000000002 # Li
     3     10.000000003 # B

Atoms # full

     1    1    1      0.000000000      0.000000000      0.000000000      0.500000000 # H
     2    1    2      0.000000000      0.500000000      0.288675140      1.000000000 # Li
     3    1    3      0.000000000      0.500000000      0.288675140      0.000000000 # B
     4    1    1      0.000000000      1.000000000      0.000000000      0.500000000 # H
     5    1    2      0.000000000      1.500000000      0.288675140      1.000000000 # Li
     6    1    3      0.000000000      1.500000000      0.288675140      0.000000000 # B
     7    1    1      0.000000000      2.000000000      0.000000000      0.500000000 # H
     8    1    2      0.000000000      2.500000000      0.288675140      1.000000000 # Li
     9    1    3      0.000000000      2.500000000      0.288675140      0.000000000 # B
    10    1    1      0.000000000      0.500000000      0.866025400      0.500000000 # H
    11    1    2      0.000000000      1.000000000      1.154700540      1.000000000 # Li
    12    1    3      0.000000000      1.000000000      1.154700540      0.000000000 # B
    13    1    1      0.000000000      1.500000000      0.866025400      0.500000000 # H
    14    1    2      0.000000000      2.000000000      1.154700540      1.000000000 # Li
    15    1    3      0.000000000      2.000000000      1.154700540      0.000000000 # B
    16    1    1      0.000000000      2.500000000      0.866025400      0.500000000 # H
    17    1    2      0.000000000      3.000000000      1.154700540      1.000000000 # Li
    18    1    3      0.000000000      3.000000000      1.154700540      0.000000000 # B
    19    1    1      0.000000000      1.000000000      1.732050810      0.500000000 # H
    20    1    2      0.000000000      1.500000000      2.020725950      1.000000000 # Li
    21    1    3      0.000000000      1.500000000      2.020725950      0.000000000 # B
    22    1    1      0.000000000      2.000000000      1.732050810      0.500000000 # H
    23    1    2      0.000000000      2.500000000      2.020725950      1.000000000 # Li
    24    1    3      0.000000000      2.500000000      2.020725950      0.000000000 # B
    25    1    1      0.000000000      3.000000000      1.732050810      0.500000000 # H
    26    1    2      0.000000000      3.500000000      2.020725950      1.000000000 # Li
    27    1    3      0.000000000      3.500000000      2.020725950      0.000000000 # B

Bonds

     1    1      1      2 # M_ X1
     2    2      1      3 # M_ X2
     3    1      1      8 # M_ X1
     4    2      1      9 # M_ X2
     5    1      1     20 # M_ X1
     6    2      1     21 # M_ X2
     7    1      2      4 # M_ X1
     8    1      2     10 # M_ X1
     9    2      3      4 # M_ X2
    10    2      3     10 # M_ X2
    11    1      4      5 # M_ X1
    12    2      4      6 # M_ X2
    13    1      4     23 # M_ X1
    14    2      4     24 # M_ X2
    15    1      5      7 # M_ X1
    16    1      5     13 # M_ X1
    17    2      6      7 # M_ X2
    18    2      6     13 # M_ X2
    19    1      7      8 # M_ X1
    20    2      7      9 # M_ X2
    21    1      7     26 # M_ X1
    22    2      7     27 # M_ X2
    23    1      8     16 # M_ X1
    24    2      9     16 # M_ X2
    25    1     10     11 # M_ X1
    26    2     10     12 # M_ X2
    27    1     10     17 # M_ X1
    28    2     10     18 # M_ X2
    29    1     11     13 # M_ X1
    30    1     11     19 # M_ X1
    31    2     12     13 # M_ X2
    32    2     12     19 # M_ X2
    33    1     13     14 # M_ X1
    34    2     13     15 # M_ X2
    35    1     14     16 # M_ X1
    36    1     14     22 # M_ X1
    37    2     15     16 # M_ X2
    38    2     15     22 # M_ X2
    39    1     16     17 # M_ X1
    40    2     16     18 # M_ X2
    41    1     17     25 # M_ X1
    42    2     18     25 # M_ X2
    43    1     19     20 # M_ X1
    44    2     19     21 # M_ X2
    45    1     19     26 # M_ X1
    46    2     19     27 # M_ X2
    47    1     20     22 # M_ X1
    48    2     21     22 # M_ X2
    49    1     22     23 # M_ X1
    50    2     22     24 # M_ X2
    51    1     23     25 # M_ X1
    52    2     24     25 # M_ X2
    53    1     25     26 # M_ X1
    54    2     25     27 # M_ X2

Angles

     1    1      1      2      4 # M_ X1 M_ T
     2    1      1      2     10 # M_ X1 M_ T
     3    2      1      3      4 # M_ X2 M_ T
     4    2      1      3     10 # M_ X2 M_ T
     5    1      1      8      7 # M_ X1 M_ T
     6    1      1      8     16 # M_ X1 M_ T
     7    2      1      9      7 # M_ X2 M_ T
     8    2      1      9     16 # M_ X2 M_ T
     9    1      1     20     19 # M_ X1 M_ T
    10    1      1     20     22 # M_ X1 M_ T
    11    2      1     21     19 # M_ X2 M_ T
    12    2      1     21     22 # M_ X2 M_ T
    13    5      2      1      3 # X1 M_ X2 N
    14    3      2      1      8 # X1 M_ X1 T
    15    4      2      1      9 # X1 M_ X2 A
    16    3      2      1     20 # X1 M_ X1 T
    17    4      2      1     21 # X1 M_ X2 A
    18    5      2      4      3 # X1 M_ X2 N
    19    3      2      4      5 # X1 M_ X1 T
    20    4      2      4      6 # X1 M_ X2 A
    21    3      2      4     23 # X1 M_ X1 T
    22    4      2      4     24 # X1 M_ X2 A
    23    5      2     10      3 # X1 M_ X2 N
    24    3      2     10     11 # X1 M_ X1 T
    25    4      2     10     12 # X1 M_ X2 A
    26    3      2     10     17 # X1 M_ X1 T
    27    4      2     10     18 # X1 M_ X2 A
    28    4      3      1      8 # X1 M_ X2 A
    29    6      3      1      9 # X2 M_ X2 T
    30    4      3      1     20 # X1 M_ X2 A
    31    6      3      1     21 # X2 M_ X2 T
    32    4      3      4      5 # X1 M_ X2 A
    33    6      3      4      6 # X2 M_ X2 T
    34    4      3      4     23 # X1 M_ X2 A
    35    6      3      4     24 # X2 M_ X2 T
    36    4      3     10     11 # X1 M_ X2 A
    37    6      3     10     12 # X2 M_ X2 T
    38    4      3     10     17 # X1 M_ X2 A
    39    6      3     10     18 # X2 M_ X2 T
    40    1      4      2     10 # M_ X1 M_ T
    41    2      4      3     10 # M_ X2 M_ T
    42    1      4      5      7 # M_ X1 M_ T
    43    1      4      5     13 # M_ X1 M_ T
    44    2      4      6      7 # M_ X2 M_ T
    45    2      4      6     13 # M_ X2 M_ T
    46    1      4     23     22 # M_ X1 M_ T
    47    1      4     23     25 # M_ X1 M_ T
    48    2      4     24     22 # M_ X2 M_ T
    49    2      4     24     25 # M_ X2 M_ T
    50    5      5      4      6 # X1 M_ X2 N
    51    3      5      4     23 # X1 M_ X1 T
    52    4      5      4     24 # X1 M_ X2 A
    53    5      5      7      6 # X1 M_ X2 N
    54    3      5      7      8 # X1 M_ X1 T
    55    4      5      7      9 # X1 M_ X2 A
    56    3      5      7     26 # X1 M_ X1 T
    57    4      5      7     27 # X1 M_ X2 A
    58    5      5     13      6 # X1 M_ X2 N
    59    3      5     13     11 # X1 M_ X1 T
    60    4      5     13     12 # X1 M_ X2 A
    61    3      5     13     14 # X1 M_ X1 T
    62    4      5     13     15 # X1 M_ X2 A
    63    4      6      4     23 # X1 M_ X2 A
    64    6      6      4     24 # X2 M_ X2 T
    65    4      6      7      8 # X1 M_ X2 A
    66    6      6      7      9 # X2 M_ X2 T
    67    4      6      7     26 # X1 M_ X2 A
    68    6      6      7     27 # X2 M_ X2 T
    69    4      6     13     11 # X1 M_ X2 A
    70    6      6     13     12 # X2 M_ X2 T
    71    4      6     13     14 # X1 M_ X2 A
    72    6      6     13     15 # X2 M_ X2 T
    73    1      7      5     13 # M_ X1 M_ T
    74    2      7      6     13 # M_ X2 M_ T
    75    1      7      8     16 # M_ X1 M_ T
    76    2      7      9     16 # M_ X2 M_ T
    77    1      7     26     19 # M_ X1 M_ T
    78    1      7     26     25 # M_ X1 M_ T
    79    2      7     27     19 # M_ X2 M_ T
    80    2      7     27     25 # M_ X2 M_ T
    81    5      8      1      9 # X1 M_ X2 N
    82    3      8      1     20 # X1 M_ X1 T
    83    4      8      1     21 # X1 M_ X2 A
    84    5      8      7      9 # X1 M_ X2 N
    85    3      8      7     26 # X1 M_ X1 T
    86    4      8      7     27 # X1 M_ X2 A
    87    5      8     16      9 # X1 M_ X2 N
    88    3      8     16     14 # X1 M_ X1 T
    89    4      8     16     15 # X1 M_ X2 A
    90    3      8     16     17 # X1 M_ X1 T
    91    4      8     16     18 # X1 M_ X2 A
    92    4      9      1     20 # X1 M_ X2 A
    93    6      9      1     21 # X2 M_ X2 T
    94    4      9      7     26 # X1 M_ X2 A
    95    6      9      7     27 # X2 M_ X2 T
    96    4      9     16     14 # X1 M_ X2 A
    97    6      9     16     15 # X2 M_ X2 T
    98    4      9     16     17 # X1 M_ X2 A
    99    6      9     16     18 # X2 M_ X2 T
   100    1     10     11     13 # M_ X1 M_ T
   101    1     10     11     19 # M_ X1 M_ T
   102    2     10     12     13 # M_ X2 M_ T
   103    2     10     12     19 # M_ X2 M_ T
   104    1     10     17     16 # M_ X1 M_ T
   105    1     10     17     25 # M_ X1 M_ T
   106    2     10     18     16 # M_ X2 M_ T
   107    2     10     18     25 # M_ X2 M_ T
   108    5     11     10     12 # X1 M_ X2 N
   109    3     11     10     17 # X1 M_ X1 T
   110    4     11     10     18 # X1 M_ X2 A
   111    5     11     13     12 # X1 M_ X2 N
   112    3     11     13     14 # X1 M_ X1 T
   113    4     11     13     15 # X1 M_ X2 A
   114    5     11     19     12 # X1 M_ X2 N
   115    3     11     19     20 # X1 M_ X1 T
   116    4     11     19     21 # X1 M_ X2 A
   117    3     11     19     26 # X1 M_ X1 T
   118    4     11     19     27 # X1 M_ X2 A
   119    4     12     10     17 # X1 M_ X2 A
   120    6     12     10     18 # X2 M_ X2 T
   121    4     12     13     14 # X1 M_ X2 A
   122    6     12     13     15 # X2 M_ X2 T
   123    4     12     19     20 # X1 M_ X2 A
   124    6     12     19     21 # X2 M_ X2 T
   125    4     12     19     26 # X1 M_ X2 A
   126    6     12     19     27 # X2 M_ X2 T
   127    1     13     11     19 # M_ X1 M_ T
   128    2     13     12     19 # M_ X2 M_ T
   129    1     13     14     16 # M_ X1 M_ T
   130    1     13     14     22 # M_ X1 M_ T
   131    2     13     15     16 # M_ X2 M_ T
   132    2     13     15     22 # M_ X2 M_ T
   133    5     14     13     15 # X1 M_ X2 N
   134    5     14     16     15 # X1 M_ X2 N
   135    3     14     16     17 # X1 M_ X1 T
   136    4     14     16     18 # X1 M_ X2 A
   137    5     14     22     15 # X1 M_ X2 N
   138    3     14     22     20 # X1 M_ X1 T
   139    4     14     22     21 # X1 M_ X2 A
   140    3     14     22     23 # X1 M_ X1 T
   141    4     14     22     24 # X1 M_ X2 A
   142    4     15     16     17 # X1 M_ X2 A
   143    6     15     16     18 # X2 M_ X2 T
   144    4     15     22     20 # X1 M_ X2 A
   145    6     15     22     21 # X2 M_ X2 T
   146    4     15     22     23 # X1 M_ X2 A
   147    6     15     22     24 # X2 M_ X2 T
   148    1     16     14     22 # M_ X1 M_ T
   149    2     16     15     22 # M_ X2 M_ T
   150    1     16     17     25 # M_ X1 M_ T
   151    2     16     18     25 # M_ X2 M_ T
   152    5     17     10     18 # X1 M_ X2 N
   153    5     17     16     18 # X1 M_ X2 N
   154    5     17     25     18 # X1 M_ X2 N
   155    3     17     25     23 # X1 M_ X1 T
   156    4     17     25     24 # X1 M_ X2 A
   157    3     17     25     26 # X1 M_ X1 T
   158    4     17     25     27 # X1 M_ X2 A
   159    4     18     25     23 # X1 M_ X2 A
   160    6     18     25     24 # X2 M_ X2 T
   161    4     18     25     26 # X1 M_ X2 A
   162    6     18     25     27 # X2 M_ X2 T
   163    1     19     20     22 # M_ X1 M_ T
   164    2     19     21     22 # M_ X2 M_ T
   165    1     19     26     25 # M_ X1 M_ T
   166    2     19     27     25 # M_ X2 M_ T
   167    5     20      1     21 # X1 M_ X2 N
   168    5     20     19     21 # X1 M_ X2 N
   169    3     20     19     26 # X1 M_ X1 T
   170    4     20     19     27 # X1 M_ X2 A
   171    5     20     22     21 # X1 M_ X2 N
   172    3     20     22     23 # X1 M_ X1 T
   173    4     20     22     24 # X1 M_ X2 A
   174    4     21     19     26 # X1 M_ X2 A
   175    6     21     19     27 # X2 M_ X2 T
   176    4     21     22     23 # X1 M_ X2 A
   177    6     21     22     24 # X2 M_ X2 T
   178    1     22     23     25 # M_ X1 M_ T
   179    2     22     24     25 # M_ X2 M_ T
   180    5     23      4     24 # X1 M_ X2 N
   181    5     23     22     24 # X1 M_ X2 N
   182    5     23     25     24 # X1 M_ X2 N
   183    3     23     25     26 # X1 M_ X1 T
   184    4     23     25     27 # X1 M_ X2 A
   185    4     24     25     26 # X1 M_ X2 A
   186    6     24     25     27 # X2 M_ X2 T
   187    5     26      7     27 # X1 M_ X2 N
   188    5     26     19     27 # X1 M_ X2 N
   189    5     26     25     27 # X1 M_ X2 N
