# MX1X2 triclinic primitive Unit Cell       
# lattice_constant_xy = 1.0       
# lattice_constant_z = 1.0       
#
3 atoms
3 atom types
0 1 xlo xhi
0 0.866025404 ylo yhi
-20 20 zlo zhi
0.5 0 0 xy xz yz

Masses

1 2.0 # T1
2 6.0 # T2
3 10.0 # T3

Atoms # full

1 1 1 0 0.000000000 0.000000000 0.500000001 # M_
2 1 2 0 0.500000000 0.288675135 1.000000001 # X1
3 1 3 0 0.500000000 0.288675135 0.000000001 # X2
