(written by ASE)

27 atoms
3 atom types

54 bonds
2 bond types

189 angles
6 angle types

0.0                       3  xlo xhi
0.0      2.5980762120000001  ylo yhi
0.0                      40  zlo zhi
                    1.5                       0                       0  xy xz yz

Masses

     1      1.9999999999999993 # M_
     2                       6 # X1
     3      9.9999999999999964 # X2

Atoms # full

     1   1   1   0.0                       0                       0                     0.5
     2   1   2   0.0                     0.5              0.28867514                       1
     3   1   3   0.0                     0.5              0.28867514                       0
     4   1   1   0.0                       1                       0                     0.5
     5   1   2   0.0                     1.5              0.28867514                       1
     6   1   3   0.0                     1.5              0.28867514                       0
     7   1   1   0.0                       2                       0                     0.5
     8   1   2   0.0                     2.5              0.28867514                       1
     9   1   3   0.0                     2.5              0.28867514                       0
    10   1   1   0.0                     0.5     0.86602539999999995                     0.5
    11   1   2   0.0                       1      1.1547005400000001                       1
    12   1   3   0.0                       1      1.1547005400000001                       0
    13   1   1   0.0                     1.5     0.86602539999999995                     0.5
    14   1   2   0.0                       2      1.1547005400000001                       1
    15   1   3   0.0                       2      1.1547005400000001                       0
    16   1   1   0.0                     2.5     0.86602539999999995                     0.5
    17   1   2   0.0                       3      1.1547005400000001                       1
    18   1   3   0.0                       3      1.1547005400000001                       0
    19   1   1   0.0                       1      1.7320508100000001                     0.5
    20   1   2   0.0                     1.5      2.0207259500000001                       1
    21   1   3   0.0                     1.5      2.0207259500000001                       0
    22   1   1   0.0                       2      1.7320508100000001                     0.5
    23   1   2   0.0                     2.5      2.0207259500000001                       1
    24   1   3   0.0                     2.5      2.0207259500000001                       0
    25   1   1   0.0                       3      1.7320508100000001                     0.5
    26   1   2   0.0                     3.5      2.0207259500000001                       1
    27   1   3   0.0                     3.5      2.0207259500000001                       0

Bonds

  1   1   1   2
  2   2   1   3
  3   1   1   8
  4   2   1   9
  5   1   1  20
  6   2   1  21
  7   1   2   4
  8   1   2  10
  9   2   3   4
 10   2   3  10
 11   1   4   5
 12   2   4   6
 13   1   4  23
 14   2   4  24
 15   1   5   7
 16   1   5  13
 17   2   6   7
 18   2   6  13
 19   1   7   8
 20   2   7   9
 21   1   7  26
 22   2   7  27
 23   1   8  16
 24   2   9  16
 25   1  10  11
 26   2  10  12
 27   1  10  17
 28   2  10  18
 29   1  11  13
 30   1  11  19
 31   2  12  13
 32   2  12  19
 33   1  13  14
 34   2  13  15
 35   1  14  16
 36   1  14  22
 37   2  15  16
 38   2  15  22
 39   1  16  17
 40   2  16  18
 41   1  17  25
 42   2  18  25
 43   1  19  20
 44   2  19  21
 45   1  19  26
 46   2  19  27
 47   1  20  22
 48   2  21  22
 49   1  22  23
 50   2  22  24
 51   1  23  25
 52   2  24  25
 53   1  25  26
 54   2  25  27

Angles

  1   5   2   1   3
  2   3   2   1   8
  3   4   2   1   9
  4   3   2   1  20
  5   4   2   1  21
  6   4   3   1   8
  7   6   3   1   9
  8   4   3   1  20
  9   6   3   1  21
 10   5   8   1   9
 11   3   8   1  20
 12   4   8   1  21
 13   4   9   1  20
 14   6   9   1  21
 15   5  20   1  21
 16   1   1   2   4
 17   1   1   2  10
 18   1   4   2  10
 19   2   1   3   4
 20   2   1   3  10
 21   2   4   3  10
 22   5   2   4   3
 23   3   2   4   5
 24   4   2   4   6
 25   3   2   4  23
 26   4   2   4  24
 27   4   3   4   5
 28   6   3   4   6
 29   4   3   4  23
 30   6   3   4  24
 31   5   5   4   6
 32   3   5   4  23
 33   4   5   4  24
 34   4   6   4  23
 35   6   6   4  24
 36   5  23   4  24
 37   1   4   5   7
 38   1   4   5  13
 39   1   7   5  13
 40   2   4   6   7
 41   2   4   6  13
 42   2   7   6  13
 43   5   5   7   6
 44   3   5   7   8
 45   4   5   7   9
 46   3   5   7  26
 47   4   5   7  27
 48   4   6   7   8
 49   6   6   7   9
 50   4   6   7  26
 51   6   6   7  27
 52   5   8   7   9
 53   3   8   7  26
 54   4   8   7  27
 55   4   9   7  26
 56   6   9   7  27
 57   5  26   7  27
 58   1   1   8   7
 59   1   1   8  16
 60   1   7   8  16
 61   2   1   9   7
 62   2   1   9  16
 63   2   7   9  16
 64   5   2  10   3
 65   3   2  10  11
 66   4   2  10  12
 67   3   2  10  17
 68   4   2  10  18
 69   4   3  10  11
 70   6   3  10  12
 71   4   3  10  17
 72   6   3  10  18
 73   5  11  10  12
 74   3  11  10  17
 75   4  11  10  18
 76   4  12  10  17
 77   6  12  10  18
 78   5  17  10  18
 79   1  10  11  13
 80   1  10  11  19
 81   1  13  11  19
 82   2  10  12  13
 83   2  10  12  19
 84   2  13  12  19
 85   5   5  13   6
 86   3   5  13  11
 87   4   5  13  12
 88   3   5  13  14
 89   4   5  13  15
 90   4   6  13  11
 91   6   6  13  12
 92   4   6  13  14
 93   6   6  13  15
 94   5  11  13  12
 95   3  11  13  14
 96   4  11  13  15
 97   4  12  13  14
 98   6  12  13  15
 99   5  14  13  15
100   1  13  14  16
101   1  13  14  22
102   1  16  14  22
103   2  13  15  16
104   2  13  15  22
105   2  16  15  22
106   5   8  16   9
107   3   8  16  14
108   4   8  16  15
109   3   8  16  17
110   4   8  16  18
111   4   9  16  14
112   6   9  16  15
113   4   9  16  17
114   6   9  16  18
115   5  14  16  15
116   3  14  16  17
117   4  14  16  18
118   4  15  16  17
119   6  15  16  18
120   5  17  16  18
121   1  10  17  16
122   1  10  17  25
123   1  16  17  25
124   2  10  18  16
125   2  10  18  25
126   2  16  18  25
127   5  11  19  12
128   3  11  19  20
129   4  11  19  21
130   3  11  19  26
131   4  11  19  27
132   4  12  19  20
133   6  12  19  21
134   4  12  19  26
135   6  12  19  27
136   5  20  19  21
137   3  20  19  26
138   4  20  19  27
139   4  21  19  26
140   6  21  19  27
141   5  26  19  27
142   1   1  20  19
143   1   1  20  22
144   1  19  20  22
145   2   1  21  19
146   2   1  21  22
147   2  19  21  22
148   5  14  22  15
149   3  14  22  20
150   4  14  22  21
151   3  14  22  23
152   4  14  22  24
153   4  15  22  20
154   6  15  22  21
155   4  15  22  23
156   6  15  22  24
157   5  20  22  21
158   3  20  22  23
159   4  20  22  24
160   4  21  22  23
161   6  21  22  24
162   5  23  22  24
163   1   4  23  22
164   1   4  23  25
165   1  22  23  25
166   2   4  24  22
167   2   4  24  25
168   2  22  24  25
169   5  17  25  18
170   3  17  25  23
171   4  17  25  24
172   3  17  25  26
173   4  17  25  27
174   4  18  25  23
175   6  18  25  24
176   4  18  25  26
177   6  18  25  27
178   5  23  25  24
179   3  23  25  26
180   4  23  25  27
181   4  24  25  26
182   6  24  25  27
183   5  26  25  27
184   1   7  26  19
185   1   7  26  25
186   1  19  26  25
187   2   7  27  19
188   2   7  27  25
189   2  19  27  25
