# LAMMPS data file

27 atoms
54 bonds
189 angles

3 atom types
2 bond types
6 angle types

0.000000000      3.000000000      xlo xhi
0.000000000      2.598076212      ylo yhi
-20.000000000    20.000000000     zlo zhi
1.500000000      0.000000000      0.000000000      xy xz yz

Masses

1 2.000000000      # H->H
2 6.000000000      # Li->Li
3 10.00000000      # B->B

Atoms

1 1 1 0.000000000      0.000000000      0.000000000      0.500000001      # H
2 1 2 0.000000000      0.500000000      0.288675135      1.000000001      # Li
3 1 3 0.000000000      0.500000000      0.288675135      0.000000001      # B
4 1 1 0.000000000      1.000000000      0.000000000      0.500000001      # H
5 1 2 0.000000000      1.500000000      0.288675135      1.000000001      # Li
6 1 3 0.000000000      1.500000000      0.288675135      0.000000001      # B
7 1 1 0.000000000      2.000000000      0.000000000      0.500000001      # H
8 1 2 0.000000000      2.500000000      0.288675135      1.000000001      # Li
9 1 3 0.000000000      2.500000000      0.288675135      0.000000001      # B
10 1 1 0.000000000      0.500000000      0.866025404      0.500000001      # H
11 1 2 0.000000000      1.000000000      1.154700539      1.000000001      # Li
12 1 3 0.000000000      1.000000000      1.154700539      0.000000001      # B
13 1 1 0.000000000      1.500000000      0.866025404      0.500000001      # H
14 1 2 0.000000000      2.000000000      1.154700539      1.000000001      # Li
15 1 3 0.000000000      2.000000000      1.154700539      0.000000001      # B
16 1 1 0.000000000      2.500000000      0.866025404      0.500000001      # H
17 1 2 0.000000000      3.000000000      1.154700539      1.000000001      # Li
18 1 3 0.000000000      3.000000000      1.154700539      0.000000001      # B
19 1 1 0.000000000      1.000000000      1.732050808      0.500000001      # H
20 1 2 0.000000000      1.500000000      2.020725943      1.000000001      # Li
21 1 3 0.000000000      1.500000000      2.020725943      0.000000001      # B
22 1 1 0.000000000      2.000000000      1.732050808      0.500000001      # H
23 1 2 0.000000000      2.500000000      2.020725943      1.000000001      # Li
24 1 3 0.000000000      2.500000000      2.020725943      0.000000001      # B
25 1 1 0.000000000      3.000000000      1.732050808      0.500000001      # H
26 1 2 0.000000000      3.500000000      2.020725943      1.000000001      # Li
27 1 3 0.000000000      3.500000000      2.020725943      0.000000001      # B

Bonds

1 1 1 2 # H Li
2 2 1 3 # H B
3 1 1 8 # H Li
4 2 1 9 # H B
5 1 1 20 # H Li
6 2 1 21 # H B
7 1 2 4 # H Li
8 1 2 10 # H Li
9 2 3 4 # H B
10 2 3 10 # H B
11 1 4 5 # H Li
12 2 4 6 # H B
13 1 4 23 # H Li
14 2 4 24 # H B
15 1 5 7 # H Li
16 1 5 13 # H Li
17 2 6 7 # H B
18 2 6 13 # H B
19 1 7 8 # H Li
20 2 7 9 # H B
21 1 7 26 # H Li
22 2 7 27 # H B
23 1 8 16 # H Li
24 2 9 16 # H B
25 1 10 11 # H Li
26 2 10 12 # H B
27 1 10 17 # H Li
28 2 10 18 # H B
29 1 11 13 # H Li
30 1 11 19 # H Li
31 2 12 13 # H B
32 2 12 19 # H B
33 1 13 14 # H Li
34 2 13 15 # H B
35 1 14 16 # H Li
36 1 14 22 # H Li
37 2 15 16 # H B
38 2 15 22 # H B
39 1 16 17 # H Li
40 2 16 18 # H B
41 1 17 25 # H Li
42 2 18 25 # H B
43 1 19 20 # H Li
44 2 19 21 # H B
45 1 19 26 # H Li
46 2 19 27 # H B
47 1 20 22 # H Li
48 2 21 22 # H B
49 1 22 23 # H Li
50 2 22 24 # H B
51 1 23 25 # H Li
52 2 24 25 # H B
53 1 25 26 # H Li
54 2 25 27 # H B

Angles

1 1 1 2 4 # H Li H T
2 1 1 2 10 # H Li H T
3 2 2 1 3 # Li H B N
4 3 2 1 8 # Li H Li T
5 4 2 1 9 # Li H B A
6 3 2 1 20 # Li H Li T
7 4 2 1 21 # Li H B A
8 5 1 3 4 # H B H T
9 5 1 3 10 # H B H T
10 4 3 1 8 # Li H B A
11 6 3 1 9 # B H B T
12 4 3 1 20 # Li H B A
13 6 3 1 21 # B H B T
14 1 1 8 7 # H Li H T
15 1 1 8 16 # H Li H T
16 2 8 1 9 # Li H B N
17 3 8 1 20 # Li H Li T
18 4 8 1 21 # Li H B A
19 5 1 9 7 # H B H T
20 5 1 9 16 # H B H T
21 4 9 1 20 # Li H B A
22 6 9 1 21 # B H B T
23 1 1 20 19 # H Li H T
24 1 1 20 22 # H Li H T
25 2 20 1 21 # Li H B N
26 5 1 21 19 # H B H T
27 5 1 21 22 # H B H T
28 2 2 4 3 # Li H B N
29 3 2 4 5 # Li H Li T
30 4 2 4 6 # Li H B A
31 3 2 4 23 # Li H Li T
32 4 2 4 24 # Li H B A
33 1 4 2 10 # H Li H T
34 2 2 10 3 # Li H B N
35 3 2 10 11 # Li H Li T
36 4 2 10 12 # Li H B A
37 3 2 10 17 # Li H Li T
38 4 2 10 18 # Li H B A
39 4 3 4 5 # Li H B A
40 6 3 4 6 # B H B T
41 4 3 4 23 # Li H B A
42 6 3 4 24 # B H B T
43 5 4 3 10 # H B H T
44 4 3 10 11 # Li H B A
45 6 3 10 12 # B H B T
46 4 3 10 17 # Li H B A
47 6 3 10 18 # B H B T
48 1 4 5 7 # H Li H T
49 1 4 5 13 # H Li H T
50 2 5 4 6 # Li H B N
51 3 5 4 23 # Li H Li T
52 4 5 4 24 # Li H B A
53 5 4 6 7 # H B H T
54 5 4 6 13 # H B H T
55 4 6 4 23 # Li H B A
56 6 6 4 24 # B H B T
57 1 4 23 22 # H Li H T
58 1 4 23 25 # H Li H T
59 2 23 4 24 # Li H B N
60 5 4 24 22 # H B H T
61 5 4 24 25 # H B H T
62 2 5 7 6 # Li H B N
63 3 5 7 8 # Li H Li T
64 4 5 7 9 # Li H B A
65 3 5 7 26 # Li H Li T
66 4 5 7 27 # Li H B A
67 1 7 5 13 # H Li H T
68 2 5 13 6 # Li H B N
69 3 5 13 11 # Li H Li T
70 4 5 13 12 # Li H B A
71 3 5 13 14 # Li H Li T
72 4 5 13 15 # Li H B A
73 4 6 7 8 # Li H B A
74 6 6 7 9 # B H B T
75 4 6 7 26 # Li H B A
76 6 6 7 27 # B H B T
77 5 7 6 13 # H B H T
78 4 6 13 11 # Li H B A
79 6 6 13 12 # B H B T
80 4 6 13 14 # Li H B A
81 6 6 13 15 # B H B T
82 1 7 8 16 # H Li H T
83 2 8 7 9 # Li H B N
84 3 8 7 26 # Li H Li T
85 4 8 7 27 # Li H B A
86 5 7 9 16 # H B H T
87 4 9 7 26 # Li H B A
88 6 9 7 27 # B H B T
89 1 7 26 19 # H Li H T
90 1 7 26 25 # H Li H T
91 2 26 7 27 # Li H B N
92 5 7 27 19 # H B H T
93 5 7 27 25 # H B H T
94 2 8 16 9 # Li H B N
95 3 8 16 14 # Li H Li T
96 4 8 16 15 # Li H B A
97 3 8 16 17 # Li H Li T
98 4 8 16 18 # Li H B A
99 4 9 16 14 # Li H B A
100 6 9 16 15 # B H B T
101 4 9 16 17 # Li H B A
102 6 9 16 18 # B H B T
103 1 10 11 13 # H Li H T
104 1 10 11 19 # H Li H T
105 2 11 10 12 # Li H B N
106 3 11 10 17 # Li H Li T
107 4 11 10 18 # Li H B A
108 5 10 12 13 # H B H T
109 5 10 12 19 # H B H T
110 4 12 10 17 # Li H B A
111 6 12 10 18 # B H B T
112 1 10 17 16 # H Li H T
113 1 10 17 25 # H Li H T
114 2 17 10 18 # Li H B N
115 5 10 18 16 # H B H T
116 5 10 18 25 # H B H T
117 2 11 13 12 # Li H B N
118 3 11 13 14 # Li H Li T
119 4 11 13 15 # Li H B A
120 1 13 11 19 # H Li H T
121 2 11 19 12 # Li H B N
122 3 11 19 20 # Li H Li T
123 4 11 19 21 # Li H B A
124 3 11 19 26 # Li H Li T
125 4 11 19 27 # Li H B A
126 4 12 13 14 # Li H B A
127 6 12 13 15 # B H B T
128 5 13 12 19 # H B H T
129 4 12 19 20 # Li H B A
130 6 12 19 21 # B H B T
131 4 12 19 26 # Li H B A
132 6 12 19 27 # B H B T
133 1 13 14 16 # H Li H T
134 1 13 14 22 # H Li H T
135 2 14 13 15 # Li H B N
136 5 13 15 16 # H B H T
137 5 13 15 22 # H B H T
138 2 14 16 15 # Li H B N
139 3 14 16 17 # Li H Li T
140 4 14 16 18 # Li H B A
141 1 16 14 22 # H Li H T
142 2 14 22 15 # Li H B N
143 3 14 22 20 # Li H Li T
144 4 14 22 21 # Li H B A
145 3 14 22 23 # Li H Li T
146 4 14 22 24 # Li H B A
147 4 15 16 17 # Li H B A
148 6 15 16 18 # B H B T
149 5 16 15 22 # H B H T
150 4 15 22 20 # Li H B A
151 6 15 22 21 # B H B T
152 4 15 22 23 # Li H B A
153 6 15 22 24 # B H B T
154 1 16 17 25 # H Li H T
155 2 17 16 18 # Li H B N
156 5 16 18 25 # H B H T
157 2 17 25 18 # Li H B N
158 3 17 25 23 # Li H Li T
159 4 17 25 24 # Li H B A
160 3 17 25 26 # Li H Li T
161 4 17 25 27 # Li H B A
162 4 18 25 23 # Li H B A
163 6 18 25 24 # B H B T
164 4 18 25 26 # Li H B A
165 6 18 25 27 # B H B T
166 1 19 20 22 # H Li H T
167 2 20 19 21 # Li H B N
168 3 20 19 26 # Li H Li T
169 4 20 19 27 # Li H B A
170 5 19 21 22 # H B H T
171 4 21 19 26 # Li H B A
172 6 21 19 27 # B H B T
173 1 19 26 25 # H Li H T
174 2 26 19 27 # Li H B N
175 5 19 27 25 # H B H T
176 2 20 22 21 # Li H B N
177 3 20 22 23 # Li H Li T
178 4 20 22 24 # Li H B A
179 4 21 22 23 # Li H B A
180 6 21 22 24 # B H B T
181 1 22 23 25 # H Li H T
182 2 23 22 24 # Li H B N
183 5 22 24 25 # H B H T
184 2 23 25 24 # Li H B N
185 3 23 25 26 # Li H Li T
186 4 23 25 27 # Li H B A
187 4 24 25 26 # Li H B A
188 6 24 25 27 # B H B T
189 2 26 25 27 # Li H B N
