# LAMMPS data file

27 atoms
54 bonds
189 angles

3 atom types
2 bond types
6 angle types

0.000000000      3.000000000      xlo xhi
0.000000000      2.598076212      ylo yhi
-20.000000000    20.000000000     zlo zhi
1.500000000      0.000000000      0.000000000      xy xz yz

Masses

1 1.000000000      # M_
2 1.000000000      # X1
3 1.000000000      # X2

Atoms

1 1 1 0.000000000      0.000000000      0.000000000      0.500000001      # M_
2 1 2 0.000000000      0.500000000      0.288675135      1.000000001      # X1
3 1 3 0.000000000      0.500000000      0.288675135      0.000000001      # X2
4 1 1 0.000000000      1.000000000      0.000000000      0.500000001      # M_
5 1 2 0.000000000      1.500000000      0.288675135      1.000000001      # X1
6 1 3 0.000000000      1.500000000      0.288675135      0.000000001      # X2
7 1 1 0.000000000      2.000000000      0.000000000      0.500000001      # M_
8 1 2 0.000000000      2.500000000      0.288675135      1.000000001      # X1
9 1 3 0.000000000      2.500000000      0.288675135      0.000000001      # X2
10 1 1 0.000000000      0.500000000      0.866025404      0.500000001      # M_
11 1 2 0.000000000      1.000000000      1.154700539      1.000000001      # X1
12 1 3 0.000000000      1.000000000      1.154700539      0.000000001      # X2
13 1 1 0.000000000      1.500000000      0.866025404      0.500000001      # M_
14 1 2 0.000000000      2.000000000      1.154700539      1.000000001      # X1
15 1 3 0.000000000      2.000000000      1.154700539      0.000000001      # X2
16 1 1 0.000000000      2.500000000      0.866025404      0.500000001      # M_
17 1 2 0.000000000      3.000000000      1.154700539      1.000000001      # X1
18 1 3 0.000000000      3.000000000      1.154700539      0.000000001      # X2
19 1 1 0.000000000      1.000000000      1.732050808      0.500000001      # M_
20 1 2 0.000000000      1.500000000      2.020725943      1.000000001      # X1
21 1 3 0.000000000      1.500000000      2.020725943      0.000000001      # X2
22 1 1 0.000000000      2.000000000      1.732050808      0.500000001      # M_
23 1 2 0.000000000      2.500000000      2.020725943      1.000000001      # X1
24 1 3 0.000000000      2.500000000      2.020725943      0.000000001      # X2
25 1 1 0.000000000      3.000000000      1.732050808      0.500000001      # M_
26 1 2 0.000000000      3.500000000      2.020725943      1.000000001      # X1
27 1 3 0.000000000      3.500000000      2.020725943      0.000000001      # X2

Bonds

1 1 1 2 # M_ X1
2 2 1 3 # M_ X2
3 1 1 8 # M_ X1
4 2 1 9 # M_ X2
5 1 1 20 # M_ X1
6 2 1 21 # M_ X2
7 1 2 4 # M_ X1
8 1 2 10 # M_ X1
9 2 3 4 # M_ X2
10 2 3 10 # M_ X2
11 1 4 5 # M_ X1
12 2 4 6 # M_ X2
13 1 4 23 # M_ X1
14 2 4 24 # M_ X2
15 1 5 7 # M_ X1
16 1 5 13 # M_ X1
17 2 6 7 # M_ X2
18 2 6 13 # M_ X2
19 1 7 8 # M_ X1
20 2 7 9 # M_ X2
21 1 7 26 # M_ X1
22 2 7 27 # M_ X2
23 1 8 16 # M_ X1
24 2 9 16 # M_ X2
25 1 10 11 # M_ X1
26 2 10 12 # M_ X2
27 1 10 17 # M_ X1
28 2 10 18 # M_ X2
29 1 11 13 # M_ X1
30 1 11 19 # M_ X1
31 2 12 13 # M_ X2
32 2 12 19 # M_ X2
33 1 13 14 # M_ X1
34 2 13 15 # M_ X2
35 1 14 16 # M_ X1
36 1 14 22 # M_ X1
37 2 15 16 # M_ X2
38 2 15 22 # M_ X2
39 1 16 17 # M_ X1
40 2 16 18 # M_ X2
41 1 17 25 # M_ X1
42 2 18 25 # M_ X2
43 1 19 20 # M_ X1
44 2 19 21 # M_ X2
45 1 19 26 # M_ X1
46 2 19 27 # M_ X2
47 1 20 22 # M_ X1
48 2 21 22 # M_ X2
49 1 22 23 # M_ X1
50 2 22 24 # M_ X2
51 1 23 25 # M_ X1
52 2 24 25 # M_ X2
53 1 25 26 # M_ X1
54 2 25 27 # M_ X2

Angles

1 1 1 2 4 # M_ X1 M_ T
2 1 1 2 10 # M_ X1 M_ T
3 2 2 1 3 # X1 M_ X2 N
4 3 2 1 8 # X1 M_ X1 T
5 4 2 1 9 # X1 M_ X2 A
6 3 2 1 20 # X1 M_ X1 T
7 4 2 1 21 # X1 M_ X2 A
8 5 1 3 4 # M_ X2 M_ T
9 5 1 3 10 # M_ X2 M_ T
10 4 3 1 8 # X1 M_ X2 A
11 6 3 1 9 # X2 M_ X2 T
12 4 3 1 20 # X1 M_ X2 A
13 6 3 1 21 # X2 M_ X2 T
14 1 1 8 7 # M_ X1 M_ T
15 1 1 8 16 # M_ X1 M_ T
16 2 8 1 9 # X1 M_ X2 N
17 3 8 1 20 # X1 M_ X1 T
18 4 8 1 21 # X1 M_ X2 A
19 5 1 9 7 # M_ X2 M_ T
20 5 1 9 16 # M_ X2 M_ T
21 4 9 1 20 # X1 M_ X2 A
22 6 9 1 21 # X2 M_ X2 T
23 1 1 20 19 # M_ X1 M_ T
24 1 1 20 22 # M_ X1 M_ T
25 2 20 1 21 # X1 M_ X2 N
26 5 1 21 19 # M_ X2 M_ T
27 5 1 21 22 # M_ X2 M_ T
28 2 2 4 3 # X1 M_ X2 N
29 3 2 4 5 # X1 M_ X1 T
30 4 2 4 6 # X1 M_ X2 A
31 3 2 4 23 # X1 M_ X1 T
32 4 2 4 24 # X1 M_ X2 A
33 1 4 2 10 # M_ X1 M_ T
34 2 2 10 3 # X1 M_ X2 N
35 3 2 10 11 # X1 M_ X1 T
36 4 2 10 12 # X1 M_ X2 A
37 3 2 10 17 # X1 M_ X1 T
38 4 2 10 18 # X1 M_ X2 A
39 4 3 4 5 # X1 M_ X2 A
40 6 3 4 6 # X2 M_ X2 T
41 4 3 4 23 # X1 M_ X2 A
42 6 3 4 24 # X2 M_ X2 T
43 5 4 3 10 # M_ X2 M_ T
44 4 3 10 11 # X1 M_ X2 A
45 6 3 10 12 # X2 M_ X2 T
46 4 3 10 17 # X1 M_ X2 A
47 6 3 10 18 # X2 M_ X2 T
48 1 4 5 7 # M_ X1 M_ T
49 1 4 5 13 # M_ X1 M_ T
50 2 5 4 6 # X1 M_ X2 N
51 3 5 4 23 # X1 M_ X1 T
52 4 5 4 24 # X1 M_ X2 A
53 5 4 6 7 # M_ X2 M_ T
54 5 4 6 13 # M_ X2 M_ T
55 4 6 4 23 # X1 M_ X2 A
56 6 6 4 24 # X2 M_ X2 T
57 1 4 23 22 # M_ X1 M_ T
58 1 4 23 25 # M_ X1 M_ T
59 2 23 4 24 # X1 M_ X2 N
60 5 4 24 22 # M_ X2 M_ T
61 5 4 24 25 # M_ X2 M_ T
62 2 5 7 6 # X1 M_ X2 N
63 3 5 7 8 # X1 M_ X1 T
64 4 5 7 9 # X1 M_ X2 A
65 3 5 7 26 # X1 M_ X1 T
66 4 5 7 27 # X1 M_ X2 A
67 1 7 5 13 # M_ X1 M_ T
68 2 5 13 6 # X1 M_ X2 N
69 3 5 13 11 # X1 M_ X1 T
70 4 5 13 12 # X1 M_ X2 A
71 3 5 13 14 # X1 M_ X1 T
72 4 5 13 15 # X1 M_ X2 A
73 4 6 7 8 # X1 M_ X2 A
74 6 6 7 9 # X2 M_ X2 T
75 4 6 7 26 # X1 M_ X2 A
76 6 6 7 27 # X2 M_ X2 T
77 5 7 6 13 # M_ X2 M_ T
78 4 6 13 11 # X1 M_ X2 A
79 6 6 13 12 # X2 M_ X2 T
80 4 6 13 14 # X1 M_ X2 A
81 6 6 13 15 # X2 M_ X2 T
82 1 7 8 16 # M_ X1 M_ T
83 2 8 7 9 # X1 M_ X2 N
84 3 8 7 26 # X1 M_ X1 T
85 4 8 7 27 # X1 M_ X2 A
86 5 7 9 16 # M_ X2 M_ T
87 4 9 7 26 # X1 M_ X2 A
88 6 9 7 27 # X2 M_ X2 T
89 1 7 26 19 # M_ X1 M_ T
90 1 7 26 25 # M_ X1 M_ T
91 2 26 7 27 # X1 M_ X2 N
92 5 7 27 19 # M_ X2 M_ T
93 5 7 27 25 # M_ X2 M_ T
94 2 8 16 9 # X1 M_ X2 N
95 3 8 16 14 # X1 M_ X1 T
96 4 8 16 15 # X1 M_ X2 A
97 3 8 16 17 # X1 M_ X1 T
98 4 8 16 18 # X1 M_ X2 A
99 4 9 16 14 # X1 M_ X2 A
100 6 9 16 15 # X2 M_ X2 T
101 4 9 16 17 # X1 M_ X2 A
102 6 9 16 18 # X2 M_ X2 T
103 1 10 11 13 # M_ X1 M_ T
104 1 10 11 19 # M_ X1 M_ T
105 2 11 10 12 # X1 M_ X2 N
106 3 11 10 17 # X1 M_ X1 T
107 4 11 10 18 # X1 M_ X2 A
108 5 10 12 13 # M_ X2 M_ T
109 5 10 12 19 # M_ X2 M_ T
110 4 12 10 17 # X1 M_ X2 A
111 6 12 10 18 # X2 M_ X2 T
112 1 10 17 16 # M_ X1 M_ T
113 1 10 17 25 # M_ X1 M_ T
114 2 17 10 18 # X1 M_ X2 N
115 5 10 18 16 # M_ X2 M_ T
116 5 10 18 25 # M_ X2 M_ T
117 2 11 13 12 # X1 M_ X2 N
118 3 11 13 14 # X1 M_ X1 T
119 4 11 13 15 # X1 M_ X2 A
120 1 13 11 19 # M_ X1 M_ T
121 2 11 19 12 # X1 M_ X2 N
122 3 11 19 20 # X1 M_ X1 T
123 4 11 19 21 # X1 M_ X2 A
124 3 11 19 26 # X1 M_ X1 T
125 4 11 19 27 # X1 M_ X2 A
126 4 12 13 14 # X1 M_ X2 A
127 6 12 13 15 # X2 M_ X2 T
128 5 13 12 19 # M_ X2 M_ T
129 4 12 19 20 # X1 M_ X2 A
130 6 12 19 21 # X2 M_ X2 T
131 4 12 19 26 # X1 M_ X2 A
132 6 12 19 27 # X2 M_ X2 T
133 1 13 14 16 # M_ X1 M_ T
134 1 13 14 22 # M_ X1 M_ T
135 2 14 13 15 # X1 M_ X2 N
136 5 13 15 16 # M_ X2 M_ T
137 5 13 15 22 # M_ X2 M_ T
138 2 14 16 15 # X1 M_ X2 N
139 3 14 16 17 # X1 M_ X1 T
140 4 14 16 18 # X1 M_ X2 A
141 1 16 14 22 # M_ X1 M_ T
142 2 14 22 15 # X1 M_ X2 N
143 3 14 22 20 # X1 M_ X1 T
144 4 14 22 21 # X1 M_ X2 A
145 3 14 22 23 # X1 M_ X1 T
146 4 14 22 24 # X1 M_ X2 A
147 4 15 16 17 # X1 M_ X2 A
148 6 15 16 18 # X2 M_ X2 T
149 5 16 15 22 # M_ X2 M_ T
150 4 15 22 20 # X1 M_ X2 A
151 6 15 22 21 # X2 M_ X2 T
152 4 15 22 23 # X1 M_ X2 A
153 6 15 22 24 # X2 M_ X2 T
154 1 16 17 25 # M_ X1 M_ T
155 2 17 16 18 # X1 M_ X2 N
156 5 16 18 25 # M_ X2 M_ T
157 2 17 25 18 # X1 M_ X2 N
158 3 17 25 23 # X1 M_ X1 T
159 4 17 25 24 # X1 M_ X2 A
160 3 17 25 26 # X1 M_ X1 T
161 4 17 25 27 # X1 M_ X2 A
162 4 18 25 23 # X1 M_ X2 A
163 6 18 25 24 # X2 M_ X2 T
164 4 18 25 26 # X1 M_ X2 A
165 6 18 25 27 # X2 M_ X2 T
166 1 19 20 22 # M_ X1 M_ T
167 2 20 19 21 # X1 M_ X2 N
168 3 20 19 26 # X1 M_ X1 T
169 4 20 19 27 # X1 M_ X2 A
170 5 19 21 22 # M_ X2 M_ T
171 4 21 19 26 # X1 M_ X2 A
172 6 21 19 27 # X2 M_ X2 T
173 1 19 26 25 # M_ X1 M_ T
174 2 26 19 27 # X1 M_ X2 N
175 5 19 27 25 # M_ X2 M_ T
176 2 20 22 21 # X1 M_ X2 N
177 3 20 22 23 # X1 M_ X1 T
178 4 20 22 24 # X1 M_ X2 A
179 4 21 22 23 # X1 M_ X2 A
180 6 21 22 24 # X2 M_ X2 T
181 1 22 23 25 # M_ X1 M_ T
182 2 23 22 24 # X1 M_ X2 N
183 5 22 24 25 # M_ X2 M_ T
184 2 23 25 24 # X1 M_ X2 N
185 3 23 25 26 # X1 M_ X1 T
186 4 23 25 27 # X1 M_ X2 A
187 4 24 25 26 # X1 M_ X2 A
188 6 24 25 27 # X2 M_ X2 T
189 2 26 25 27 # X1 M_ X2 N
